# LAMMPS FENE chain data file

           2  atoms
	   1  bonds
           0  angles
           0  dihedrals
           0  impropers
 
           1  atom types
           1  bond types
           0  angle types
           0  dihedral types
           0  improper types

 0.000000  140.000000 xlo xhi
 0.000000  140.000000 ylo yhi
 0.000000  140.000000 zlo zhi

Masses
 
  1  1.0

Atoms
# atom_id molecule_id atom_type  q x y z
         1       1    1   1  7    7    7
         2       1    1  -1  8.8    7    7

Bonds
# bond_id, molecule_id, atom1_id, atom2_id
    1  1  1  2
