ITEM: TIMESTEP
0
ITEM: NUMBER OF ATOMS
2
ITEM: BOX BOUNDS
0 140
0 140
0 140
ITEM: ATOMS id type xs ys zs
1 1 0.05 0.05 0.05
2 1 0.0628571 0.05 0.05
