ITEM: TIMESTEP
0
ITEM: NUMBER OF ATOMS
20
ITEM: BOX BOUNDS
0 10
0 10
0 20
ITEM: ATOMS
1 1 1 2 1.5 0 0 0 
2 1 2 2 1.5 0 0 0 
3 1 3 2 1.5 0 0 0 
4 1 4 2 0.5 0 0 0 
5 1 5 2 0.5 0 0 0 
6 1 4 4 0.7 0 0 0 
7 1 5 4 1.5 0 0 0 
8 1 6 4 0.7 0 0 0 
9 1 7 4 2.0 0 0 0 
10 1 8 4 2.0 0 0 0 
11 1 1 2 1.5 0 0 0
12 1 2 2 1.5 0 0 0
13 1 3 2 1.5 0 0 0
14 1 4 2 0.5 0 0 0
15 1 5 2 0.5 0 0 0
16 1 4 4 0.7 0 0 0
17 1 5 4 1.5 0 0 0
18 1 6 4 0.7 0 0 0
19 1 7 4 2.0 0 0 0
20 1 8 4 2.0 0 0 0
ITEM: TIMESTEP
1
ITEM: NUMBER OF ATOMS
20
ITEM: BOX BOUNDS
0 10
0 10
0 20
ITEM: ATOMS
1 1 1 2 1.5 0 0 0
2 1 2 2 1.5 0 0 0
3 1 3 2 1.5 0 0 0
4 1 4 2 1.5 0 0 0
5 1 5 2 1.5 0 0 0
6 1 4 4 0.7 0 0 0
7 1 5 4 1.5 0 0 0
8 1 6 4 0.7 0 0 0
9 1 7 4 2.0 0 0 0
10 1 8 4 2.0 0 0 0
11 1 1 2 1.5 0 0 0
12 1 2 2 1.5 0 0 0
13 1 3 2 1.5 0 0 0
14 1 4 2 1.5 0 0 0
15 1 5 2 1.5 0 0 0
16 1 4 4 0.7 0 0 0
17 1 5 4 1.5 0 0 0
18 1 6 4 0.7 0 0 0
19 1 7 4 2.0 0 0 0
20 1 8 4 2.0 0 0 0
ITEM: TIMESTEP
0
ITEM: NUMBER OF ATOMS
20
ITEM: BOX BOUNDS
0 10
0 10
0 20
ITEM: ATOMS
1 1 1 2 0.5 0 0 0
2 1 2 2 0.5 0 0 0
3 1 3 2 0.5 0 0 0
4 1 4 2 0.5 0 0 0
5 1 5 2 0.5 0 0 0
6 1 4 4 0.7 0 0 0
7 1 5 4 0.5 0 0 0
8 1 6 4 0.7 0 0 0
9 1 7 4 0.5 0 0 0
10 1 8 4 0.5 0 0 0
11 1 1 2 0.5 0 0 0
12 1 2 2 0.5 0 0 0
13 1 3 2 0.5 0 0 0
14 1 4 2 0.5 0 0 0
15 1 5 2 0.5 0 0 0
16 1 4 4 0.7 0 0 0
17 1 5 4 0.5 0 0 0
18 1 6 4 0.7 0 0 0
19 1 7 4 0.5 0 0 0
20 1 8 4 0.5 0 0 0
