LAMMPS FENE chain data file
 
          16  atoms
          7  bonds
           0  angles
           0  dihedrals
           0  impropers
 
           2  atom types
           1  bond types
           0  angle types
           0  dihedral types
           0  improper types

 0.000000  12.599210 xlo xhi
 0.000000  12.599210 ylo yhi
 0.000000  12.599210 zlo zhi

Masses
  #
  1  1.0
  2  1.0

Atoms
  # atom_id, molecule_id, atom_type, charge, x, y, z, wind_x, wind_y, wind_z 
  1  1  1  -1.000000  1.000000  6.299605  6.299605  0  0  0
  2  1  1  -1.000000  2.000000  6.299605  6.299605  0  0  0
  3  1  1  -1.000000  3.000000  6.299605  6.299605  0  0  0
  4  1  1  -1.000000  4.000000  6.299605  6.299605  0  0  0
  5  1  1  -1.000000  5.000000  6.299605  6.299605  0  0  0
  6  1  1  -1.000000  6.000000  6.299605  6.299605  0  0  0
  7  1  1  -1.000000  7.000000  6.299605  6.299605  0  0  0
  8  1  1  -1.000000  8.000000  6.299605  6.299605  0  0  0
  9  2  2  1.000000  1.000000  7.299605  6.299605  0  0  0
  10  2  2  1.000000  2.000000  7.299605  6.299605  0  0  0
  11  2  2  1.000000  3.000000  7.299605  6.299605  0  0  0
  12  2  2  1.000000  4.000000  7.299605  6.299605  0  0  0
  13  2  2  1.000000  5.000000  7.299605  6.299605  0  0  0
  14  2  2  1.000000  6.000000  7.299605  6.299605  0  0  0
  15  2  2  1.000000  7.000000  7.299605  6.299605  0  0  0
  16  2  2  1.000000  8.000000  7.299605  6.299605  0  0  0

Bonds
  # bond_id, molecule_id, atom1_id, atom2_id
  1  1  1  2
  2  1  2  3
  3  1  3  4
  4  1  4  5
  5  1  5  6
  6  1  6  7
  7  1  7  8


