LAMMPS FENE chain data file
 
          32  atoms
          15  bonds
           0  angles
           0  dihedrals
           0  impropers
 
           2  atom types
           1  bond types
           0  angle types
           0  dihedral types
           0  improper types

 0.000000  12.599210 xlo xhi
 0.000000  12.599210 ylo yhi
 0.000000  12.599210 zlo zhi

Masses
  #
  1  1.0
  2  1.0

Atoms
  # atom_id, molecule_id, atom_type, charge, x, y, z, wind_x, wind_y, wind_z 
  1  1  1  -1.000000  7.299605  6.378975  6.305905  0  0  0
  2  1  1  -1.000000  8.299605  6.458345  6.312204  0  0  0
  3  1  1  -1.000000  9.299605  6.537715  6.318504  0  0  0
  4  1  1  -1.000000  10.299605  6.617085  6.324804  0  0  0
  5  1  1  -1.000000  11.299605  6.696456  6.331103  0  0  0
  6  1  1  -1.000000  12.299605  6.775826  6.337403  0  0  0
  7  1  1  -1.000000  0.700395  6.855196  6.343702  1  0  0
  8  1  1  -1.000000  1.700395  6.934566  6.350002  1  0  0
  9  1  1  -1.000000  2.700395  7.013936  6.356302  1  0  0
  10  1  1  -1.000000  3.700395  7.093306  6.362601  1  0  0
  11  1  1  -1.000000  4.700395  7.172676  6.368901  1  0  0
  12  1  1  -1.000000  5.700395  7.252046  6.375201  1  0  0
  13  1  1  -1.000000  6.700395  7.331416  6.381500  1  0  0
  14  1  1  -1.000000  7.700395  7.410786  6.387800  1  0  0
  15  1  1  -1.000000  8.700395  7.490156  6.394099  1  0  0
  16  1  1  -1.000000  9.700395  7.569526  6.400399  1  0  0
  17  2  2  1.000000  10.700395  7.648896  6.406699  1  0  0
  18  2  2  1.000000  11.700395  7.728266  6.412998  1  0  0
  19  2  2  1.000000  0.101184  7.807636  6.419298  2  0  0
  20  2  2  1.000000  1.101184  7.887006  6.425597  2  0  0
  21  2  2  1.000000  2.101184  7.966376  6.431897  2  0  0
  22  2  2  1.000000  3.101184  8.045746  6.438197  2  0  0
  23  2  2  1.000000  4.101184  8.125116  6.444496  2  0  0
  24  2  2  1.000000  5.101184  8.204487  6.450796  2  0  0
  25  2  2  1.000000  6.101184  8.283857  6.457095  2  0  0
  26  2  2  1.000000  7.101184  8.363227  6.463395  2  0  0
  27  2  2  1.000000  8.101184  8.442597  6.469695  2  0  0
  28  2  2  1.000000  9.101184  8.521967  6.475994  2  0  0
  29  2  2  1.000000  10.101184  8.601337  6.482294  2  0  0
  30  2  2  1.000000  11.101184  8.680707  6.488593  2  0  0
  31  2  2  1.000000  12.101184  8.760077  6.494893  2  0  0
  32  2  2  1.000000  0.501974  8.839447  6.501193  3  0  0

Bonds
  # bond_id, molecule_id, atom1_id, atom2_id
  1  1  1  2
  2  1  2  3
  3  1  3  4
  4  1  4  5
  5  1  5  6
  6  1  6  7
  7  1  7  8
  8  1  8  9
  9  1  9  10
  10  1  10  11
  11  1  11  12
  12  1  12  13
  13  1  13  14
  14  1  14  15
  15  1  15  16


