LAMMPS FENE chain data file
 
          16  atoms
          7  bonds
           0  angles
           0  dihedrals
           0  impropers
 
           2  atom types
           1  bond types
           0  angle types
           0  dihedral types
           0  improper types

 0.000000  12.599210 xlo xhi
 0.000000  12.599210 ylo yhi
 0.000000  12.599210 zlo zhi

Masses
  #
  1  1.0
  2  1.0

Atoms
  # atom_id, molecule_id, atom_type, charge, x, y, z, wind_x, wind_y, wind_z 
  1  1  1  -1.000000  7.299605  6.378975  6.305905  0  0  0
  2  1  1  -1.000000  8.299605  6.617085  6.324804  0  0  0
  3  1  1  -1.000000  9.299605  7.013936  6.356302  0  0  0
  4  1  1  -1.000000  10.299605  7.569526  6.400399  0  0  0
  5  1  1  -1.000000  11.299605  8.283857  6.457095  0  0  0
  6  1  1  -1.000000  12.299605  9.156927  6.526391  0  0  0
  7  1  1  -1.000000  0.700395  10.188738  6.608286  1  0  0
  8  1  1  -1.000000  1.700395  11.379289  6.702780  1  0  0
  9  2  2  1.000000  15.299605  12.728580  6.809873  0  0  0
  10  2  2  1.000000  16.299605  14.236611  6.929566  0  0  0
  11  2  2  1.000000  17.299605  15.903382  7.061857  0  0  0
  12  2  2  1.000000  18.299605  17.728893  7.206748  0  0  0
  13  2  2  1.000000  19.299605  19.713144  7.364239  0  0  0
  14  2  2  1.000000  20.299605  21.856136  7.534328  0  0  0
  15  2  2  1.000000  21.299605  24.157867  7.717016  0  0  0
  16  2  2  1.000000  22.299605  26.618339  7.912304  0  0  0

Bonds
  # bond_id, molecule_id, atom1_id, atom2_id
  1  1  1  2
  2  1  2  3
  3  1  3  4
  4  1  4  5
  5  1  5  6
  6  1  6  7
  7  1  7  8


