ITEM: TIMESTEP
0
ITEM: NUMBER OF ATOMS
16
ITEM: BOX BOUNDS
0 12.5992
0 12.5992
0 12.5992
ITEM: ATOMS id type x y z ix iy iz
1 1 1 6.2996 6.2996 0 0 0
2 1 2 6.2996 6.2996 0 0 0
3 1 3 6.2996 6.2996 0 0 0
4 1 4 6.2996 6.2996 0 0 0
5 1 5 6.2996 6.2996 0 0 0
6 1 6 6.2996 6.2996 0 0 0
7 1 7 6.2996 6.2996 0 0 0
8 1 8 6.2996 6.2996 0 0 0
9 2 1 7.2996 6.2996 0 0 0
10 2 2 7.2996 6.2996 0 0 0
11 2 3 7.2996 6.2996 0 0 0
12 2 4 7.2996 6.2996 0 0 0
13 2 5 7.2996 6.2996 0 0 0
14 2 6 7.2996 6.2996 0 0 0
15 2 7 7.2996 6.2996 0 0 0
16 2 8 7.2996 6.2996 0 0 0
ITEM: TIMESTEP
100
ITEM: NUMBER OF ATOMS
16
ITEM: BOX BOUNDS
0 12.5992
0 12.5992
0 12.5992
ITEM: ATOMS id type x y z ix iy iz
1 1 0.717663 6.13447 6.26478 0 0 0
2 1 1.77976 6.28658 6.21313 0 0 0
3 1 2.85773 6.32537 6.29203 0 0 0
4 1 3.95901 6.24812 6.22587 0 0 0
5 1 5.05762 6.26247 6.4049 0 0 0
6 1 6.17016 6.30781 6.35775 0 0 0
7 1 7.23494 6.21712 6.30211 0 0 0
8 1 8.28913 6.22651 6.27671 0 0 0
9 2 0.503066 7.38015 6.17676 0 0 0
10 2 1.64646 7.40562 6.271 0 0 0
11 2 2.80146 7.3766 6.27662 0 0 0
12 2 3.90863 7.37593 6.37044 0 0 0
13 2 5.02907 7.36966 6.30862 0 0 0
14 2 6.16557 7.33777 6.24315 0 0 0
15 2 7.26669 7.32936 6.32291 0 0 0
16 2 8.48159 7.40778 6.34573 0 0 0
ITEM: TIMESTEP
200
ITEM: NUMBER OF ATOMS
16
ITEM: BOX BOUNDS
0 12.5992
0 12.5992
0 12.5992
ITEM: ATOMS id type x y z ix iy iz
1 1 0.518969 6.28388 6.2138 0 0 0
2 1 1.56311 6.43174 6.22772 0 0 0
3 1 2.81068 6.3618 6.13229 0 0 0
4 1 3.99312 6.3231 6.2161 0 0 0
5 1 5.15255 6.25379 6.4756 0 0 0
6 1 6.26998 6.29667 6.51539 0 0 0
7 1 7.34972 6.19137 6.42452 0 0 0
8 1 8.37744 6.5177 6.25251 0 0 0
9 2 12.4067 7.17176 6.0121 -1 0 0
10 2 0.966127 7.44214 6.22275 0 0 0
11 2 2.50301 7.47442 6.26131 0 0 0
12 2 3.71118 7.39132 6.47401 0 0 0
13 2 5.09904 7.34887 6.2855 0 0 0
14 2 6.45782 7.34096 6.11172 0 0 0
15 2 7.77676 7.28676 6.35601 0 0 0
16 2 9.21865 7.21223 6.42178 0 0 0
ITEM: TIMESTEP
300
ITEM: NUMBER OF ATOMS
16
ITEM: BOX BOUNDS
0 12.5992
0 12.5992
0 12.5992
ITEM: ATOMS id type x y z ix iy iz
1 1 0.663013 6.56039 6.19467 0 0 0
2 1 1.6925 6.50628 6.17115 0 0 0
3 1 2.89831 6.56829 6.12636 0 0 0
4 1 3.97846 6.39999 6.29159 0 0 0
5 1 5.16365 6.23973 6.48706 0 0 0
6 1 6.19586 6.32435 6.58972 0 0 0
7 1 7.39037 6.4625 6.47716 0 0 0
8 1 8.4614 6.43269 6.30374 0 0 0
9 2 11.7263 6.77668 5.95057 -1 0 0
10 2 0.406814 7.75145 6.18927 0 0 0
11 2 2.22474 7.43845 6.24357 0 0 0
12 2 3.49501 7.32949 6.5436 0 0 0
13 2 5.16501 7.34861 6.27172 0 0 0
14 2 6.77094 7.15196 6.05373 0 0 0
15 2 7.90511 7.74015 6.4878 0 0 0
16 2 9.92775 6.78854 6.5459 0 0 0
ITEM: TIMESTEP
400
ITEM: NUMBER OF ATOMS
16
ITEM: BOX BOUNDS
0 12.5992
0 12.5992
0 12.5992
ITEM: ATOMS id type x y z ix iy iz
1 1 0.870184 6.67344 6.23527 0 0 0
2 1 1.89563 6.38538 6.23016 0 0 0
3 1 3.04994 6.61386 6.22102 0 0 0
4 1 4.03981 6.30041 6.27401 0 0 0
5 1 5.14126 6.29624 6.60347 0 0 0
6 1 6.2869 6.42696 6.60063 0 0 0
7 1 7.32967 6.56952 6.84688 0 0 0
8 1 8.3309 6.59163 6.42797 0 0 0
9 2 11.2274 6.3739 5.89997 -1 0 0
10 2 0.0217332 8.15768 6.19732 0 0 0
11 2 2.055 7.61309 6.12051 0 0 0
12 2 3.29434 7.55519 6.76598 0 0 0
13 2 5.22831 7.24138 6.20913 0 0 0
14 2 6.66991 7.09029 5.74147 0 0 0
15 2 8.05311 8.05318 6.69886 0 0 0
16 2 10.3549 6.181 6.69739 0 0 0
ITEM: TIMESTEP
500
ITEM: NUMBER OF ATOMS
16
ITEM: BOX BOUNDS
0 12.5992
0 12.5992
0 12.5992
ITEM: ATOMS id type x y z ix iy iz
1 1 1.06557 6.91976 6.27942 0 0 0
2 1 2.08328 6.51409 6.54259 0 0 0
3 1 3.21116 6.70495 6.34891 0 0 0
4 1 4.22691 6.44304 6.41088 0 0 0
5 1 5.29343 6.25589 6.75942 0 0 0
6 1 6.21185 6.76237 6.54567 0 0 0
7 1 7.12175 6.8641 6.95456 0 0 0
8 1 8.11714 7.03515 6.53523 0 0 0
9 2 10.9317 6.05551 5.67659 -1 0 0
10 2 12.3204 8.42293 6.06152 -1 0 0
11 2 1.86578 7.31817 5.85763 0 0 0
12 2 3.24662 7.52587 7.01041 0 0 0
13 2 5.3174 7.1264 6.12489 0 0 0
14 2 6.63159 6.7947 5.52327 0 0 0
15 2 8.11232 8.15068 6.95614 0 0 0
16 2 10.5024 5.44924 6.9855 0 0 0
ITEM: TIMESTEP
600
ITEM: NUMBER OF ATOMS
16
ITEM: BOX BOUNDS
0 12.5992
0 12.5992
0 12.5992
ITEM: ATOMS id type x y z ix iy iz
1 1 1.14109 6.86998 6.50522 0 0 0
2 1 2.1882 6.82369 6.71346 0 0 0
3 1 3.14603 6.71518 6.40465 0 0 0
4 1 4.26667 6.67311 6.69764 0 0 0
5 1 5.34029 6.18811 6.75653 0 0 0
6 1 6.11162 6.91887 6.49253 0 0 0
7 1 7.03946 7.24461 7.04127 0 0 0
8 1 7.98045 7.45174 6.38903 0 0 0
9 2 10.679 5.72165 5.29469 -1 0 0
10 2 12.0398 8.59584 5.8753 -1 0 0
11 2 2.20692 7.16357 5.39376 0 0 0
12 2 3.18011 7.35082 7.28288 0 0 0
13 2 5.16599 7.09037 5.90803 0 0 0
14 2 6.62794 6.35137 5.38576 0 0 0
15 2 8.03621 8.1964 7.31043 0 0 0
16 2 10.7428 4.67456 7.36732 0 0 0
ITEM: TIMESTEP
700
ITEM: NUMBER OF ATOMS
16
ITEM: BOX BOUNDS
0 12.5992
0 12.5992
0 12.5992
ITEM: ATOMS id type x y z ix iy iz
1 1 1.27648 6.92878 6.54006 0 0 0
2 1 2.27996 7.30586 6.66369 0 0 0
3 1 3.14975 6.73845 6.41404 0 0 0
4 1 4.18106 6.75092 7.05222 0 0 0
5 1 5.06735 6.597 6.5585 0 0 0
6 1 6.06347 7.02398 6.51427 0 0 0
7 1 6.87313 7.60743 6.84968 0 0 0
8 1 7.79873 7.78007 6.25428 0 0 0
9 2 10.4449 5.37833 4.91092 -1 0 0
10 2 11.777 8.72907 5.57635 -1 0 0
11 2 2.65345 6.89948 5.1568 0 0 0
12 2 3.20653 6.95688 7.51477 0 0 0
13 2 5.33941 7.20905 5.79395 0 0 0
14 2 6.5602 6.00939 5.55598 0 0 0
15 2 7.87596 8.18015 7.5216 0 0 0
16 2 11.0825 3.9059 7.77972 0 0 0
ITEM: TIMESTEP
800
ITEM: NUMBER OF ATOMS
16
ITEM: BOX BOUNDS
0 12.5992
0 12.5992
0 12.5992
ITEM: ATOMS id type x y z ix iy iz
1 1 1.50193 7.07935 6.5051 0 0 0
2 1 2.38297 7.69252 6.50181 0 0 0
3 1 3.12024 6.97202 6.61922 0 0 0
4 1 4.06265 6.74779 7.04132 0 0 0
5 1 5.02979 6.91955 6.47521 0 0 0
6 1 6.03935 7.04078 6.60411 0 0 0
7 1 6.73406 7.81706 6.69629 0 0 0
8 1 7.68327 8.11844 6.28032 0 0 0
9 2 10.2934 5.09714 4.4997 -1 0 0
10 2 11.5852 8.96844 5.19765 -1 0 0
11 2 3.146 6.61223 5.25372 0 0 0
12 2 2.91664 6.59393 7.69168 0 0 0
13 2 5.57227 7.56852 5.51534 0 0 0
14 2 6.40997 5.78726 5.95684 0 0 0
15 2 7.47201 7.94475 7.44639 0 0 0
16 2 11.517 3.11193 8.14409 0 0 0
ITEM: TIMESTEP
900
ITEM: NUMBER OF ATOMS
16
ITEM: BOX BOUNDS
0 12.5992
0 12.5992
0 12.5992
ITEM: ATOMS id type x y z ix iy iz
1 1 1.69962 7.17088 6.48986 0 0 0
2 1 2.47281 7.93208 6.26854 0 0 0
3 1 3.05291 7.18855 6.84288 0 0 0
4 1 4.08813 6.66916 6.79316 0 0 0
5 1 4.99081 7.1878 6.28797 0 0 0
6 1 6.04317 7.02232 6.55173 0 0 0
7 1 6.60594 7.95795 6.26047 0 0 0
8 1 7.57076 8.39525 6.41248 0 0 0
9 2 10.2684 4.84043 4.07711 -1 0 0
10 2 11.4939 9.16726 4.80217 -1 0 0
11 2 3.62485 6.341 5.66985 0 0 0
12 2 2.59839 6.41322 7.59486 0 0 0
13 2 5.74999 7.73823 5.56449 0 0 0
14 2 6.08471 5.80149 6.44003 0 0 0
15 2 7.11197 7.68034 7.36007 0 0 0
16 2 11.7827 2.41614 8.46879 0 0 0
ITEM: TIMESTEP
1000
ITEM: NUMBER OF ATOMS
16
ITEM: BOX BOUNDS
0 12.5992
0 12.5992
0 12.5992
ITEM: ATOMS id type x y z ix iy iz
1 1 1.82304 7.16014 6.5597 0 0 0
2 1 2.70507 7.7148 6.15771 0 0 0
3 1 3.17104 7.27128 7.02792 0 0 0
4 1 4.19445 7.13137 6.78859 0 0 0
5 1 5.0846 7.00674 6.19366 0 0 0
6 1 6.11747 7.04655 6.35223 0 0 0
7 1 6.77268 7.88203 6.11019 0 0 0
8 1 7.38269 8.59109 6.73117 0 0 0
9 2 10.3347 4.57547 3.69255 -1 0 0
10 2 11.5039 9.36727 4.48231 -1 0 0
11 2 3.92431 5.90608 5.75567 0 0 0
12 2 2.43933 6.49137 7.13683 0 0 0
13 2 5.6377 7.78133 5.65417 0 0 0
14 2 5.58411 6.09933 6.93015 0 0 0
15 2 6.68788 7.52902 7.08961 0 0 0
16 2 12.0301 1.72295 8.71449 0 0 0
ITEM: TIMESTEP
1100
ITEM: NUMBER OF ATOMS
16
ITEM: BOX BOUNDS
0 12.5992
0 12.5992
0 12.5992
ITEM: ATOMS id type x y z ix iy iz
1 1 1.67162 7.50044 6.39034 0 0 0
2 1 2.83737 7.27923 6.21313 0 0 0
3 1 3.45081 7.4468 7.12764 0 0 0
4 1 4.51843 7.42888 6.83496 0 0 0
5 1 5.09651 6.79286 6.19339 0 0 0
6 1 6.37806 6.85788 5.88703 0 0 0
7 1 6.95208 7.8403 6.11952 0 0 0
8 1 7.21225 8.47971 6.86534 0 0 0
9 2 10.4061 4.24761 3.29432 -1 0 0
10 2 11.5174 9.61893 4.29601 -1 0 0
11 2 4.09484 5.65597 5.6963 0 0 0
12 2 2.6166 6.58924 6.87087 0 0 0
13 2 5.60424 7.92316 5.70993 0 0 0
14 2 4.99123 6.68549 7.34224 0 0 0
15 2 6.41001 7.54295 6.96066 0 0 0
16 2 12.2538 0.928546 8.91317 0 0 0
ITEM: TIMESTEP
1200
ITEM: NUMBER OF ATOMS
16
ITEM: BOX BOUNDS
0 12.5992
0 12.5992
0 12.5992
ITEM: ATOMS id type x y z ix iy iz
1 1 1.90531 7.7462 5.97071 0 0 0
2 1 2.87098 7.56078 6.27436 0 0 0
3 1 3.76199 7.35983 6.74355 0 0 0
4 1 4.83088 7.68629 6.48158 0 0 0
5 1 5.41091 6.84434 6.3454 0 0 0
6 1 6.22062 7.00081 5.55133 0 0 0
7 1 6.96639 7.58718 6.07967 0 0 0
8 1 6.93375 8.28278 6.93452 0 0 0
9 2 10.5428 3.92099 2.82385 -1 0 0
10 2 11.5022 9.91666 4.14121 -1 0 0
11 2 4.32134 5.66784 5.69687 0 0 0
12 2 2.76487 6.46445 7.19943 0 0 0
13 2 5.64635 7.84776 5.90786 0 0 0
14 2 4.47843 7.13136 7.94158 0 0 0
15 2 6.10091 7.58292 6.87343 0 0 0
16 2 12.4915 0.10884 9.03091 0 0 0
ITEM: TIMESTEP
1300
ITEM: NUMBER OF ATOMS
16
ITEM: BOX BOUNDS
0 12.5992
0 12.5992
0 12.5992
ITEM: ATOMS id type x y z ix iy iz
1 1 2.24481 7.8889 5.61096 0 0 0
2 1 2.99242 7.7819 6.37459 0 0 0
3 1 3.8786 7.1234 6.35953 0 0 0
4 1 4.95577 7.73014 6.52154 0 0 0
5 1 5.51394 6.85341 6.18388 0 0 0
6 1 6.23398 6.89381 5.42189 0 0 0
7 1 6.85314 7.36691 6.11439 0 0 0
8 1 6.85904 8.21923 7.02683 0 0 0
9 2 10.6788 3.61703 2.31316 -1 0 0
10 2 11.4077 10.2612 3.91745 -1 0 0
11 2 4.69343 5.80454 5.77552 0 0 0
12 2 2.97696 6.6421 7.42982 0 0 0
13 2 5.67276 7.79416 5.72938 0 0 0
14 2 3.99331 7.65079 8.2166 0 0 0
15 2 5.98327 7.5375 7.04652 0 0 0
16 2 0.133827 11.8462 9.24139 1 -1 0
ITEM: TIMESTEP
1400
ITEM: NUMBER OF ATOMS
16
ITEM: BOX BOUNDS
0 12.5992
0 12.5992
0 12.5992
ITEM: ATOMS id type x y z ix iy iz
1 1 2.82487 7.91565 5.46465 0 0 0
2 1 3.11082 7.72283 6.48571 0 0 0
3 1 3.92502 7.10318 6.1924 0 0 0
4 1 4.92552 7.40378 6.79915 0 0 0
5 1 5.63412 7.06734 6.03444 0 0 0
6 1 6.40513 6.74243 5.37365 0 0 0
7 1 6.57622 7.16107 6.26279 0 0 0
8 1 7.02207 8.07809 6.99564 0 0 0
9 2 10.7992 3.34152 1.78032 -1 0 0
10 2 11.3422 10.7128 3.77693 -1 0 0
11 2 4.95568 6.03055 5.90048 0 0 0
12 2 3.23937 6.96484 7.25987 0 0 0
13 2 5.76382 7.84805 5.38153 0 0 0
14 2 3.51927 8.11109 8.31619 0 0 0
15 2 6.04032 7.54763 7.11602 0 0 0
16 2 0.513929 10.9811 9.37798 1 -1 0
ITEM: TIMESTEP
1500
ITEM: NUMBER OF ATOMS
16
ITEM: BOX BOUNDS
0 12.5992
0 12.5992
0 12.5992
ITEM: ATOMS id type x y z ix iy iz
1 1 3.22902 7.88939 5.26157 0 0 0
2 1 3.25248 7.84773 6.39566 0 0 0
3 1 4.13187 7.17062 6.2022 0 0 0
4 1 4.85658 7.09288 6.8592 0 0 0
5 1 5.54572 7.21319 5.90763 0 0 0
6 1 6.3987 6.78383 5.57463 0 0 0
7 1 7.05003 6.83918 6.35105 0 0 0
8 1 7.1204 7.93707 6.89097 0 0 0
9 2 10.9082 3.12191 1.27048 -1 0 0
10 2 11.3828 11.1016 3.70119 -1 0 0
11 2 4.91041 6.20565 5.9701 0 0 0
12 2 3.59746 6.96918 7.19353 0 0 0
13 2 6.02969 7.83801 5.0934 0 0 0
14 2 3.12526 8.51038 8.31421 0 0 0
15 2 5.94538 7.60367 6.94926 0 0 0
16 2 0.896208 10.0566 9.58848 1 -1 0
ITEM: TIMESTEP
1600
ITEM: NUMBER OF ATOMS
16
ITEM: BOX BOUNDS
0 12.5992
0 12.5992
0 12.5992
ITEM: ATOMS id type x y z ix iy iz
1 1 3.36896 7.95583 5.10918 0 0 0
2 1 3.47343 7.9337 6.1761 0 0 0
3 1 4.38112 7.32178 6.08759 0 0 0
4 1 4.97397 6.95329 6.85395 0 0 0
5 1 5.4782 7.36517 5.70787 0 0 0
6 1 6.32716 6.8968 5.94825 0 0 0
7 1 7.29847 6.70329 6.3806 0 0 0
8 1 7.19038 7.71607 6.77529 0 0 0
9 2 10.989 2.97167 0.810564 -1 0 0
10 2 11.5863 11.5355 3.73142 -1 0 0
11 2 4.91519 6.32381 5.81806 0 0 0
12 2 3.83881 6.8193 7.29591 0 0 0
13 2 6.36128 7.57718 5.05377 0 0 0
14 2 2.76433 8.76509 8.01529 0 0 0
15 2 5.9508 7.47946 6.71401 0 0 0
16 2 1.30392 9.13564 9.78669 1 -1 0
ITEM: TIMESTEP
1700
ITEM: NUMBER OF ATOMS
16
ITEM: BOX BOUNDS
0 12.5992
0 12.5992
0 12.5992
ITEM: ATOMS id type x y z ix iy iz
1 1 3.41897 8.05535 4.99601 0 0 0
2 1 3.44246 8.09853 6.074 0 0 0
3 1 4.12404 7.11495 6.11644 0 0 0
4 1 5.12354 7.05835 6.65836 0 0 0
5 1 5.6283 7.27688 5.82774 0 0 0
6 1 6.42803 6.55653 6.03218 0 0 0
7 1 7.53539 6.6082 6.28807 0 0 0
8 1 7.2053 7.45154 6.66629 0 0 0
9 2 11.0308 2.81381 0.430092 -1 0 0
10 2 11.8442 12.0198 3.69167 -1 0 0
11 2 4.89342 6.55011 5.66147 0 0 0
12 2 4.27494 6.83777 7.14234 0 0 0
13 2 6.5789 7.35954 5.3253 0 0 0
14 2 2.45065 8.95223 7.58578 0 0 0
15 2 6.22765 7.58871 6.99737 0 0 0
16 2 1.69364 8.21859 10.0835 1 -1 0
ITEM: TIMESTEP
1800
ITEM: NUMBER OF ATOMS
16
ITEM: BOX BOUNDS
0 12.5992
0 12.5992
0 12.5992
ITEM: ATOMS id type x y z ix iy iz
1 1 3.40234 8.21859 4.98703 0 0 0
2 1 3.37185 7.98369 6.02682 0 0 0
3 1 4.0612 7.04911 6.09372 0 0 0
4 1 4.91217 7.07837 6.56859 0 0 0
5 1 6.0091 7.08093 5.99309 0 0 0
6 1 6.58963 6.21938 6.07717 0 0 0
7 1 7.7022 6.45692 6.00114 0 0 0
8 1 7.47087 7.40215 6.60567 0 0 0
9 2 11.1669 2.65043 0.0566645 -1 0 0
10 2 12.1487 12.4718 3.6012 -1 0 0
11 2 4.91896 6.75683 5.46672 0 0 0
12 2 4.20694 6.73883 7.4973 0 0 0
13 2 7.19859 7.07368 5.45576 0 0 0
14 2 2.24179 8.9172 7.01268 0 0 0
15 2 6.44839 7.72711 7.27329 0 0 0
16 2 2.09481 7.14504 10.4474 1 -1 0
ITEM: TIMESTEP
1900
ITEM: NUMBER OF ATOMS
16
ITEM: BOX BOUNDS
0 12.5992
0 12.5992
0 12.5992
ITEM: ATOMS id type x y z ix iy iz
1 1 3.29389 8.40034 5.09222 0 0 0
2 1 3.33249 7.79079 5.89756 0 0 0
3 1 4.0634 6.9642 6.32132 0 0 0
4 1 5.05501 7.15436 6.66672 0 0 0
5 1 6.03896 6.61871 6.28969 0 0 0
6 1 6.92478 6.04252 6.0536 0 0 0
7 1 8.01015 6.09845 6.28478 0 0 0
8 1 7.80742 7.20732 6.40882 0 0 0
9 2 11.3361 2.43495 12.2757 -1 0 -1
10 2 12.4248 0.22482 3.59963 -1 1 0
11 2 4.85446 7.0225 5.3661 0 0 0
12 2 4.13905 6.69411 7.52593 0 0 0
13 2 7.52063 7.20475 5.33143 0 0 0
14 2 2.0603 8.69359 6.33536 0 0 0
15 2 6.64168 7.70783 7.31653 0 0 0
16 2 2.54893 6.04382 10.7479 1 -1 0
ITEM: TIMESTEP
2000
ITEM: NUMBER OF ATOMS
16
ITEM: BOX BOUNDS
0 12.5992
0 12.5992
0 12.5992
ITEM: ATOMS id type x y z ix iy iz
1 1 3.07096 8.49428 5.32595 0 0 0
2 1 3.35355 7.53747 5.69911 0 0 0
3 1 4.14123 7.17301 6.46488 0 0 0
4 1 5.24294 7.04829 6.67063 0 0 0
5 1 6.03107 6.3005 6.5345 0 0 0
6 1 7.1046 6.15934 6.07026 0 0 0
7 1 8.12969 5.95117 6.48695 0 0 0
8 1 8.30955 7.08904 6.37854 0 0 0
9 2 11.4284 2.21054 11.8489 -1 0 -1
10 2 0.0269859 0.539588 3.60638 0 1 0
11 2 4.68994 7.20967 5.67047 0 0 0
12 2 4.12233 6.73795 7.45969 0 0 0
13 2 7.73697 7.07062 5.34589 0 0 0
14 2 1.89782 8.32924 5.61553 0 0 0
15 2 6.85724 7.4532 7.22693 0 0 0
16 2 3.04314 4.88014 11.14 1 -1 0
ITEM: TIMESTEP
2100
ITEM: NUMBER OF ATOMS
16
ITEM: BOX BOUNDS
0 12.5992
0 12.5992
0 12.5992
ITEM: ATOMS id type x y z ix iy iz
1 1 2.77874 8.36987 5.67528 0 0 0
2 1 3.57563 7.44785 5.73596 0 0 0
3 1 4.00195 7.51127 6.69983 0 0 0
4 1 5.06468 6.80434 6.64932 0 0 0
5 1 6.08909 6.33723 6.71964 0 0 0
6 1 7.11374 6.42678 6.29359 0 0 0
7 1 8.10155 6.16861 6.59022 0 0 0
8 1 8.85111 6.86749 6.40673 0 0 0
9 2 11.4338 2.00535 11.4099 -1 0 -1
10 2 0.25005 0.790443 3.6565 0 1 0
11 2 4.91789 7.37802 5.65926 0 0 0
12 2 4.29285 6.7034 7.54208 0 0 0
13 2 7.93334 6.70838 5.65616 0 0 0
14 2 1.94698 7.93356 4.89282 0 0 0
15 2 6.99806 7.01977 7.01822 0 0 0
16 2 3.45864 3.668 11.5582 1 -1 0
ITEM: TIMESTEP
2200
ITEM: NUMBER OF ATOMS
16
ITEM: BOX BOUNDS
0 12.5992
0 12.5992
0 12.5992
ITEM: ATOMS id type x y z ix iy iz
1 1 2.52957 7.75728 5.86841 0 0 0
2 1 3.7406 7.61323 5.87894 0 0 0
3 1 4.40845 7.44743 6.78018 0 0 0
4 1 5.03423 6.60057 6.49351 0 0 0
5 1 6.05861 6.85644 6.5943 0 0 0
6 1 7.02082 6.2021 6.22396 0 0 0
7 1 8.13912 6.20253 6.91028 0 0 0
8 1 9.07939 6.62688 6.34308 0 0 0
9 2 11.4793 1.87844 10.9633 -1 0 -1
10 2 0.492898 1.04753 3.73118 0 1 0
11 2 4.8985 7.46419 5.89906 0 0 0
12 2 4.41784 6.7299 7.6064 0 0 0
13 2 8.1716 6.53424 5.82573 0 0 0
14 2 2.16201 7.45087 4.37241 0 0 0
15 2 6.87667 7.07657 7.52086 0 0 0
16 2 3.89623 2.39497 12.0638 1 -1 0
ITEM: TIMESTEP
2300
ITEM: NUMBER OF ATOMS
16
ITEM: BOX BOUNDS
0 12.5992
0 12.5992
0 12.5992
ITEM: ATOMS id type x y z ix iy iz
1 1 2.80016 7.14758 6.0264 0 0 0
2 1 3.61518 7.62779 6.27378 0 0 0
3 1 4.65858 7.25649 6.7029 0 0 0
4 1 5.3074 6.59 6.40442 0 0 0
5 1 6.23974 6.9876 6.38514 0 0 0
6 1 6.98541 6.35582 6.79813 0 0 0
7 1 8.11476 6.51948 7.06121 0 0 0
8 1 9.0832 6.08463 6.61964 0 0 0
9 2 11.5537 1.81621 10.5483 -1 0 -1
10 2 0.842512 1.23785 3.84763 0 1 0
11 2 4.89766 7.55479 5.73704 0 0 0
12 2 4.49239 6.68675 7.70756 0 0 0
13 2 8.06843 6.51843 5.76292 0 0 0
14 2 2.53567 7.00721 4.08416 0 0 0
15 2 6.84186 7.01054 7.71943 0 0 0
16 2 4.42001 1.16175 12.4781 1 -1 0
ITEM: TIMESTEP
2400
ITEM: NUMBER OF ATOMS
16
ITEM: BOX BOUNDS
0 12.5992
0 12.5992
0 12.5992
ITEM: ATOMS id type x y z ix iy iz
1 1 3.17525 6.54278 6.20544 0 0 0
2 1 3.43837 7.51059 6.67186 0 0 0
3 1 4.66102 7.24745 6.68789 0 0 0
4 1 5.45078 6.66729 6.3761 0 0 0
5 1 6.63171 7.07165 6.3524 0 0 0
6 1 7.13749 6.2921 6.89906 0 0 0
7 1 8.14664 6.65146 7.23372 0 0 0
8 1 8.68407 5.87553 6.97013 0 0 0
9 2 11.5781 1.71776 10.1554 -1 0 -1
10 2 1.25929 1.28597 4.03756 0 1 0
11 2 4.862 7.52681 5.60283 0 0 0
12 2 4.60422 6.72088 7.58203 0 0 0
13 2 7.85075 6.42016 5.93475 0 0 0
14 2 2.90098 6.58483 3.9929 0 0 0
15 2 6.79862 7.07704 7.89387 0 0 0
16 2 4.87259 12.5041 0.17193 1 -2 1
ITEM: TIMESTEP
2500
ITEM: NUMBER OF ATOMS
16
ITEM: BOX BOUNDS
0 12.5992
0 12.5992
0 12.5992
ITEM: ATOMS id type x y z ix iy iz
1 1 3.65006 6.12714 6.4094 0 0 0
2 1 3.44346 7.13969 6.84248 0 0 0
3 1 4.48852 7.42726 6.56997 0 0 0
4 1 5.44255 7.15703 6.38834 0 0 0
5 1 6.81473 7.09994 6.47286 0 0 0
6 1 7.17072 6.33137 7.16358 0 0 0
7 1 8.12734 6.80684 7.52404 0 0 0
8 1 8.28476 5.68113 7.28038 0 0 0
9 2 11.6446 1.655 9.84985 -1 0 -1
10 2 1.64672 1.35851 4.19615 0 1 0
11 2 4.93961 7.46983 5.55696 0 0 0
12 2 4.67495 6.74294 7.3678 0 0 0
13 2 7.7528 6.31913 6.05444 0 0 0
14 2 3.266 6.17303 3.94663 0 0 0
15 2 6.78074 7.0901 7.90096 0 0 0
16 2 5.30723 11.3271 0.386071 1 -2 1
ITEM: TIMESTEP
2600
ITEM: NUMBER OF ATOMS
16
ITEM: BOX BOUNDS
0 12.5992
0 12.5992
0 12.5992
ITEM: ATOMS id type x y z ix iy iz
1 1 4.02896 5.80513 6.56582 0 0 0
2 1 3.77016 6.85584 6.90286 0 0 0
3 1 4.44654 7.62789 6.60759 0 0 0
4 1 5.71402 7.58211 6.72158 0 0 0
5 1 6.71773 7.12393 6.67929 0 0 0
6 1 7.22855 6.35155 7.25542 0 0 0
7 1 8.05537 6.75724 7.71955 0 0 0
8 1 8.00025 5.56407 7.38215 0 0 0
9 2 11.7078 1.65668 9.65722 -1 0 -1
10 2 2.01509 1.40287 4.36142 0 1 0
11 2 4.94384 7.4432 5.29081 0 0 0
12 2 4.74676 6.72059 7.04254 0 0 0
13 2 7.64207 6.33686 6.31061 0 0 0
14 2 3.68163 5.80099 3.92198 0 0 0
15 2 6.76099 7.43736 7.94553 0 0 0
16 2 5.71042 10.1345 0.684913 1 -2 1
ITEM: TIMESTEP
2700
ITEM: NUMBER OF ATOMS
16
ITEM: BOX BOUNDS
0 12.5992
0 12.5992
0 12.5992
ITEM: ATOMS id type x y z ix iy iz
1 1 4.38023 5.73507 6.72739 0 0 0
2 1 4.067 6.72668 6.73758 0 0 0
3 1 4.63604 7.59582 6.76043 0 0 0
4 1 5.72656 7.88994 7.0155 0 0 0
5 1 6.44296 7.12814 6.98243 0 0 0
6 1 6.85405 6.4341 7.62327 0 0 0
7 1 7.97725 6.62816 7.84325 0 0 0
8 1 7.9309 5.61234 7.41428 0 0 0
9 2 11.809 1.6205 9.46407 -1 0 -1
10 2 2.35238 1.50731 4.61905 0 1 0
11 2 5.06768 7.3702 5.38854 0 0 0
12 2 5.35234 6.52609 6.82699 0 0 0
13 2 7.75612 6.43606 6.26525 0 0 0
14 2 4.12788 5.48989 3.92688 0 0 0
15 2 6.80637 7.74371 7.79546 0 0 0
16 2 6.07145 8.92288 1.08476 1 -2 1
ITEM: TIMESTEP
2800
ITEM: NUMBER OF ATOMS
16
ITEM: BOX BOUNDS
0 12.5992
0 12.5992
0 12.5992
ITEM: ATOMS id type x y z ix iy iz
1 1 4.79225 5.72061 6.6872 0 0 0
2 1 4.41709 6.6529 6.54581 0 0 0
3 1 4.86277 7.55911 6.74217 0 0 0
4 1 5.79465 8.20655 7.25418 0 0 0
5 1 6.22302 7.29748 7.19653 0 0 0
6 1 6.65297 6.61192 8.00463 0 0 0
7 1 7.87577 6.53531 7.8707 0 0 0
8 1 7.97388 5.70492 7.35919 0 0 0
9 2 11.9655 1.52589 9.17159 -1 0 -1
10 2 2.82641 1.65744 4.77005 0 1 0
11 2 5.20977 7.34812 5.82533 0 0 0
12 2 5.63758 6.34063 6.76184 0 0 0
13 2 7.73662 6.46822 6.58202 0 0 0
14 2 4.54169 5.24345 3.94306 0 0 0
15 2 6.99996 7.97318 7.53961 0 0 0
16 2 6.41305 7.72914 1.49846 1 -2 1
ITEM: TIMESTEP
2900
ITEM: NUMBER OF ATOMS
16
ITEM: BOX BOUNDS
0 12.5992
0 12.5992
0 12.5992
ITEM: ATOMS id type x y z ix iy iz
1 1 4.87216 5.57491 6.46157 0 0 0
2 1 4.76326 6.67921 6.42514 0 0 0
3 1 4.89926 7.53551 7.06649 0 0 0
4 1 5.78871 8.33306 7.34557 0 0 0
5 1 6.12136 7.32446 7.30004 0 0 0
6 1 6.66713 7.02367 8.28883 0 0 0
7 1 7.64102 6.5051 8.01425 0 0 0
8 1 8.07767 5.62249 7.41354 0 0 0
9 2 12.1531 1.42041 8.9508 -1 0 -1
10 2 3.33866 1.76347 4.94516 0 1 0
11 2 5.59253 7.31369 5.98588 0 0 0
12 2 5.86139 6.31327 7.02388 0 0 0
13 2 7.6834 6.6064 6.93003 0 0 0
14 2 4.95483 5.06481 3.97946 0 0 0
15 2 7.17147 8.26895 7.4847 0 0 0
16 2 6.65811 6.59631 1.82402 1 -2 1
ITEM: TIMESTEP
3000
ITEM: NUMBER OF ATOMS
16
ITEM: BOX BOUNDS
0 12.5992
0 12.5992
0 12.5992
ITEM: ATOMS id type x y z ix iy iz
1 1 4.91717 5.53957 5.9928 0 0 0
2 1 5.1163 6.56719 6.46788 0 0 0
3 1 5.00798 7.44802 7.00568 0 0 0
4 1 5.63094 8.2434 7.20142 0 0 0
5 1 6.45113 7.53205 7.44129 0 0 0
6 1 6.95715 7.31618 8.46658 0 0 0
7 1 7.41262 6.4078 8.4888 0 0 0
8 1 8.1637 5.79839 7.65966 0 0 0
9 2 12.4929 1.36839 8.91264 -1 0 -1
10 2 3.89495 1.92452 5.18507 0 1 0
11 2 6.04029 7.47875 6.2051 0 0 0
12 2 5.9305 6.34322 7.36545 0 0 0
13 2 7.65769 6.70204 6.90164 0 0 0
14 2 5.3718 4.96634 4.06606 0 0 0
15 2 6.98729 8.40832 7.45709 0 0 0
16 2 6.89466 5.64417 2.10543 1 -2 1
ITEM: TIMESTEP
3100
ITEM: NUMBER OF ATOMS
16
ITEM: BOX BOUNDS
0 12.5992
0 12.5992
0 12.5992
ITEM: ATOMS id type x y z ix iy iz
1 1 5.00434 5.66251 5.44293 0 0 0
2 1 5.57567 6.32104 6.2003 0 0 0
3 1 5.23038 7.2882 6.68005 0 0 0
4 1 5.79428 8.24904 7.21502 0 0 0
5 1 6.5704 7.5621 7.51428 0 0 0
6 1 7.39641 7.46343 8.25035 0 0 0
7 1 7.15201 6.38387 8.68023 0 0 0
8 1 8.10061 6.17012 7.97274 0 0 0
9 2 0.28969 1.33689 8.87024 0 0 -1
10 2 4.42747 1.98881 5.40799 0 1 0
11 2 6.31644 7.35644 6.46456 0 0 0
12 2 5.82557 6.72718 7.57919 0 0 0
13 2 7.59204 6.66733 7.24975 0 0 0
14 2 5.72858 4.89332 4.26448 0 0 0
15 2 6.86414 8.75948 7.5198 0 0 0
16 2 7.10123 4.73149 2.36219 1 -2 1
ITEM: TIMESTEP
3200
ITEM: NUMBER OF ATOMS
16
ITEM: BOX BOUNDS
0 12.5992
0 12.5992
0 12.5992
ITEM: ATOMS id type x y z ix iy iz
1 1 5.4065 5.86106 5.05227 0 0 0
2 1 5.71484 6.46367 5.87771 0 0 0
3 1 5.68127 7.24383 6.537 0 0 0
4 1 5.65422 8.17238 7.20291 0 0 0
5 1 6.66611 7.78565 7.58687 0 0 0
6 1 7.64886 7.57815 8.05171 0 0 0
7 1 7.14513 6.8189 8.7853 0 0 0
8 1 8.02327 6.40544 8.56133 0 0 0
9 2 0.703146 1.23683 8.79131 0 0 -1
10 2 4.95991 2.03883 5.58376 0 1 0
11 2 6.80881 6.7846 6.21392 0 0 0
12 2 5.65485 7.08288 7.78408 0 0 0
13 2 7.25654 6.53076 7.33005 0 0 0
14 2 5.98936 4.79041 4.57355 0 0 0
15 2 6.56065 8.79827 7.55595 0 0 0
16 2 7.2631 3.83291 2.56007 1 -2 1
ITEM: TIMESTEP
3300
ITEM: NUMBER OF ATOMS
16
ITEM: BOX BOUNDS
0 12.5992
0 12.5992
0 12.5992
ITEM: ATOMS id type x y z ix iy iz
1 1 5.98844 5.91805 4.7923 0 0 0
2 1 5.9943 6.60732 5.60919 0 0 0
3 1 6.09427 7.22303 6.51625 0 0 0
4 1 5.94842 8.32367 6.83915 0 0 0
5 1 6.51344 7.79033 7.51902 0 0 0
6 1 7.41454 7.93104 7.96267 0 0 0
7 1 7.13524 7.16631 8.78476 0 0 0
8 1 8.02997 6.63217 9.1499 0 0 0
9 2 1.25561 1.01724 8.64324 0 0 -1
10 2 5.52193 2.09368 5.75288 0 1 0
11 2 7.06856 6.2364 5.95694 0 0 0
12 2 5.61521 7.11499 8.10841 0 0 0
13 2 6.89384 6.52559 7.54245 0 0 0
14 2 6.15198 4.90381 4.90463 0 0 0
15 2 6.25862 9.07887 7.58991 0 0 0
16 2 7.42185 2.89418 2.73165 1 -2 1
ITEM: TIMESTEP
3400
ITEM: NUMBER OF ATOMS
16
ITEM: BOX BOUNDS
0 12.5992
0 12.5992
0 12.5992
ITEM: ATOMS id type x y z ix iy iz
1 1 6.59334 5.95341 4.62207 0 0 0
2 1 6.4616 6.77228 5.45214 0 0 0
3 1 6.47954 7.17642 6.4612 0 0 0
4 1 6.23063 8.14834 6.57407 0 0 0
5 1 6.2212 7.93402 7.55378 0 0 0
6 1 7.12448 8.15509 7.97586 0 0 0
7 1 7.256 7.3284 8.63442 0 0 0
8 1 7.74229 6.81999 9.66569 0 0 0
9 2 1.80381 0.838822 8.52811 0 0 -1
10 2 6.09364 2.15553 5.90788 0 1 0
11 2 7.07542 5.92738 5.59538 0 0 0
12 2 5.70282 7.36466 8.39188 0 0 0
13 2 6.61833 6.97501 7.87543 0 0 0
14 2 6.17992 4.99904 5.24465 0 0 0
15 2 6.17999 9.06564 7.44905 0 0 0
16 2 7.66037 1.92296 2.95378 1 -2 1
ITEM: TIMESTEP
3500
ITEM: NUMBER OF ATOMS
16
ITEM: BOX BOUNDS
0 12.5992
0 12.5992
0 12.5992
ITEM: ATOMS id type x y z ix iy iz
1 1 6.80561 5.92277 4.44888 0 0 0
2 1 6.74718 6.56993 5.24815 0 0 0
3 1 6.90478 7.00071 6.18707 0 0 0
4 1 6.48123 8.00365 6.58624 0 0 0
5 1 5.91969 8.08242 7.62329 0 0 0
6 1 6.84673 8.31276 8.2101 0 0 0
7 1 7.4174 7.43702 8.6848 0 0 0
8 1 7.22313 7.03992 9.84428 0 0 0
9 2 2.34367 0.598413 8.45758 0 0 -1
10 2 6.64103 2.24004 6.07 0 1 0
11 2 7.46861 5.8048 5.61993 0 0 0
12 2 5.81764 7.66543 8.67704 0 0 0
13 2 6.68778 7.25895 7.86826 0 0 0
14 2 6.10227 5.3535 5.42541 0 0 0
15 2 6.36268 9.1081 7.07238 0 0 0
16 2 7.99696 0.939358 3.18392 1 -2 1
ITEM: TIMESTEP
3600
ITEM: NUMBER OF ATOMS
16
ITEM: BOX BOUNDS
0 12.5992
0 12.5992
0 12.5992
ITEM: ATOMS id type x y z ix iy iz
1 1 6.89762 5.69672 4.31509 0 0 0
2 1 7.08375 6.29807 5.18611 0 0 0
3 1 7.2157 7.21854 5.81631 0 0 0
4 1 6.67447 7.41627 6.74711 0 0 0
5 1 6.23908 8.20777 7.57912 0 0 0
6 1 6.67372 8.74991 8.48383 0 0 0
7 1 7.11974 7.81194 8.83081 0 0 0
8 1 6.65288 7.33579 9.67168 0 0 0
9 2 2.99692 0.263664 8.4459 0 0 -1
10 2 7.13534 2.34737 6.26509 0 1 0
11 2 7.92906 6.06802 5.76235 0 0 0
12 2 5.90591 7.95045 9.03366 0 0 0
13 2 6.73356 7.02089 7.83491 0 0 0
14 2 6.05934 5.84254 5.41687 0 0 0
15 2 6.58395 9.00431 6.73421 0 0 0
16 2 8.29515 0.108489 3.31284 1 -2 1
ITEM: TIMESTEP
3700
ITEM: NUMBER OF ATOMS
16
ITEM: BOX BOUNDS
0 12.5992
0 12.5992
0 12.5992
ITEM: ATOMS id type x y z ix iy iz
1 1 6.90924 5.49204 4.43732 0 0 0
2 1 7.55163 6.27058 5.03224 0 0 0
3 1 7.33267 7.20381 5.65154 0 0 0
4 1 6.85262 7.51967 6.51549 0 0 0
5 1 6.85248 8.1986 7.45814 0 0 0
6 1 6.69058 9.04834 8.14699 0 0 0
7 1 6.65949 8.0955 8.95208 0 0 0
8 1 6.38849 7.33532 9.71837 0 0 0
9 2 3.57288 0.0471796 8.48416 0 0 -1
10 2 7.62752 2.4363 6.54104 0 1 0
11 2 8.36246 6.45935 5.99952 0 0 0
12 2 5.71849 8.30337 9.23455 0 0 0
13 2 6.8349 6.94237 8.30416 0 0 0
14 2 6.00425 6.21108 5.3134 0 0 0
15 2 6.76592 8.61596 6.47076 0 0 0
16 2 8.54127 11.9887 3.5063 1 -3 1
ITEM: TIMESTEP
3800
ITEM: NUMBER OF ATOMS
16
ITEM: BOX BOUNDS
0 12.5992
0 12.5992
0 12.5992
ITEM: ATOMS id type x y z ix iy iz
1 1 7.11569 5.43562 4.78104 0 0 0
2 1 7.70772 6.21893 5.01955 0 0 0
3 1 7.44737 6.93676 5.67109 0 0 0
4 1 7.11662 7.32541 6.59311 0 0 0
5 1 7.41276 8.09194 7.27766 0 0 0
6 1 6.66087 8.54128 7.92947 0 0 0
7 1 6.38465 8.39472 8.99077 0 0 0
8 1 6.32257 7.44023 9.58939 0 0 0
9 2 3.99249 12.4612 8.55755 0 -1 -1
10 2 8.07516 2.48578 6.90052 0 1 0
11 2 8.54544 6.94273 6.12609 0 0 0
12 2 5.18985 8.93337 9.31422 0 0 0
13 2 6.96666 7.23211 8.75468 0 0 0
14 2 6.19956 6.65349 5.18044 0 0 0
15 2 6.90584 8.78975 6.12845 0 0 0
16 2 8.64497 11.2829 3.66007 1 -3 1
ITEM: TIMESTEP
3900
ITEM: NUMBER OF ATOMS
16
ITEM: BOX BOUNDS
0 12.5992
0 12.5992
0 12.5992
ITEM: ATOMS id type x y z ix iy iz
1 1 7.30779 5.34853 5.09512 0 0 0
2 1 7.97444 6.12844 5.06735 0 0 0
3 1 7.59897 6.95611 5.69766 0 0 0
4 1 7.37159 7.07855 6.76567 0 0 0
5 1 7.61092 8.04836 7.2807 0 0 0
6 1 6.70919 8.04355 7.96761 0 0 0
7 1 6.11523 8.47209 8.88061 0 0 0
8 1 5.82377 7.77773 9.83616 0 0 0
9 2 4.41373 12.1675 8.63769 0 -1 -1
10 2 8.51136 2.55563 7.08541 0 1 0
11 2 8.41011 7.35133 6.25465 0 0 0
12 2 4.87262 9.34544 9.35682 0 0 0
13 2 7.37496 7.61456 8.5893 0 0 0
14 2 6.71342 7.04383 5.15957 0 0 0
15 2 7.06043 8.89456 6.00737 0 0 0
16 2 8.67767 10.5257 3.73521 1 -3 1
ITEM: TIMESTEP
4000
ITEM: NUMBER OF ATOMS
16
ITEM: BOX BOUNDS
0 12.5992
0 12.5992
0 12.5992
ITEM: ATOMS id type x y z ix iy iz
1 1 7.5902 5.19186 5.37293 0 0 0
2 1 8.10405 6.10708 5.12071 0 0 0
3 1 7.82857 7.00673 5.80935 0 0 0
4 1 7.56191 6.91522 6.95839 0 0 0
5 1 7.36711 7.86536 7.38934 0 0 0
6 1 6.5433 7.94332 8.03444 0 0 0
7 1 5.82884 8.21033 8.72918 0 0 0
8 1 5.36399 8.39545 9.66266 0 0 0
9 2 4.83895 11.7499 8.70301 0 -1 -1
10 2 8.91769 2.66604 7.23191 0 1 0
11 2 8.35869 7.8111 6.63402 0 0 0
12 2 4.69505 9.56225 9.40977 0 0 0
13 2 7.98579 7.87275 8.47807 0 0 0
14 2 7.06426 7.29367 5.06501 0 0 0
15 2 7.25251 8.84843 6.04876 0 0 0
16 2 8.71058 9.85414 3.72565 1 -3 1
ITEM: TIMESTEP
4100
ITEM: NUMBER OF ATOMS
16
ITEM: BOX BOUNDS
0 12.5992
0 12.5992
0 12.5992
ITEM: ATOMS id type x y z ix iy iz
1 1 8.08271 5.07568 5.47608 0 0 0
2 1 8.08493 6.12891 5.3217 0 0 0
3 1 7.98321 7.05141 5.89683 0 0 0
4 1 7.78549 6.89937 6.92851 0 0 0
5 1 7.36288 7.64306 7.39476 0 0 0
6 1 6.39604 7.86126 8.05522 0 0 0
7 1 5.28281 8.13081 8.70858 0 0 0
8 1 5.03771 8.74337 9.49284 0 0 0
9 2 5.25108 11.2967 8.76266 0 -1 -1
10 2 9.20546 2.74237 7.41656 0 1 0
11 2 8.37647 7.95591 7.08212 0 0 0
12 2 4.52621 9.82453 9.42163 0 0 0
13 2 8.3413 7.96676 8.24938 0 0 0
14 2 7.51646 7.3027 4.99421 0 0 0
15 2 7.28136 8.60225 6.26204 0 0 0
16 2 8.80551 9.30194 3.54428 1 -3 1
ITEM: TIMESTEP
4200
ITEM: NUMBER OF ATOMS
16
ITEM: BOX BOUNDS
0 12.5992
0 12.5992
0 12.5992
ITEM: ATOMS id type x y z ix iy iz
1 1 8.61715 5.15353 5.46871 0 0 0
2 1 8.03255 6.21567 5.61678 0 0 0
3 1 8.32512 7.12525 6.03835 0 0 0
4 1 7.98201 6.85742 7.08991 0 0 0
5 1 7.20713 7.71852 7.65673 0 0 0
6 1 6.20992 7.88326 8.06956 0 0 0
7 1 5.28906 8.1427 8.48912 0 0 0
8 1 4.89159 8.80569 9.25368 0 0 0
9 2 5.70093 10.9013 8.91312 0 -1 -1
10 2 9.53107 2.89213 7.61474 0 1 0
11 2 8.13517 7.97375 7.16112 0 0 0
12 2 4.21899 10.0996 9.35365 0 0 0
13 2 8.41634 7.85188 8.41605 0 0 0
14 2 7.8694 7.01372 4.91407 0 0 0
15 2 7.18079 8.07644 6.62634 0 0 0
16 2 8.9812 8.79108 3.37486 1 -3 1
ITEM: TIMESTEP
4300
ITEM: NUMBER OF ATOMS
16
ITEM: BOX BOUNDS
0 12.5992
0 12.5992
0 12.5992
ITEM: ATOMS id type x y z ix iy iz
1 1 9.05071 5.61115 5.43811 0 0 0
2 1 8.17927 6.20784 6.04173 0 0 0
3 1 8.54485 7.07031 6.44186 0 0 0
4 1 7.80064 7.21876 7.14569 0 0 0
5 1 7.357 7.4703 8.15248 0 0 0
6 1 6.42154 7.95119 7.88427 0 0 0
7 1 5.40462 8.21381 8.27756 0 0 0
8 1 4.62028 8.94304 9.0448 0 0 0
9 2 6.24807 10.519 9.08767 0 -1 -1
10 2 9.77484 3.05295 7.84138 0 1 0
11 2 8.084 8.21342 7.08638 0 0 0
12 2 3.90832 10.1078 9.26944 0 0 0
13 2 8.23007 7.59321 8.7619 0 0 0
14 2 8.24828 6.63619 4.99711 0 0 0
15 2 6.79826 7.33001 6.75183 0 0 0
16 2 9.15703 8.25254 3.19108 1 -3 1
ITEM: TIMESTEP
4400
ITEM: NUMBER OF ATOMS
16
ITEM: BOX BOUNDS
0 12.5992
0 12.5992
0 12.5992
ITEM: ATOMS id type x y z ix iy iz
1 1 9.51258 5.9889 5.70659 0 0 0
2 1 8.62293 6.25341 6.24814 0 0 0
3 1 8.58963 7.14458 6.90718 0 0 0
4 1 7.71849 7.44302 7.31714 0 0 0
5 1 7.20296 7.45384 8.2985 0 0 0
6 1 6.35584 7.9828 7.84581 0 0 0
7 1 5.55628 8.52957 8.09613 0 0 0