ITEM: TIMESTEP
0
ITEM: NUMBER OF ATOMS
32
ITEM: BOX BOUNDS
0 12.5992
0 12.5992
0 12.5992
ITEM: ATOMS id type xs ys zs ix iy iz
1 1 0.57937 0.5063 0.5005 0 0 0
2 1 0.65874 0.512599 0.501 0 0 0
3 1 0.73811 0.518899 0.5015 0 0 0
4 1 0.81748 0.525198 0.502 0 0 0
5 1 0.89685 0.531498 0.5025 0 0 0
6 1 0.97622 0.537798 0.503 0 0 0
7 1 0.0555904 0.544097 0.5035 1 0 0
8 1 0.13496 0.550397 0.504 1 0 0
9 1 0.214331 0.556696 0.5045 1 0 0
10 1 0.293701 0.562996 0.505 1 0 0
11 1 0.373071 0.569296 0.5055 1 0 0
12 1 0.452441 0.575595 0.506 1 0 0
13 1 0.531811 0.581895 0.5065 1 0 0
14 1 0.611181 0.588194 0.507 1 0 0
15 1 0.690551 0.594494 0.5075 1 0 0
16 1 0.769921 0.600794 0.508 1 0 0
17 2 0.849291 0.607093 0.5085 1 0 0
18 2 0.928661 0.613393 0.509 1 0 0
19 2 0.00803098 0.619693 0.5095 2 0 0
20 2 0.087401 0.625992 0.51 2 0 0
21 2 0.166771 0.632292 0.5105 2 0 0
22 2 0.246141 0.638591 0.511 2 0 0
23 2 0.325511 0.644891 0.5115 2 0 0
24 2 0.404881 0.651191 0.512 2 0 0
25 2 0.484251 0.65749 0.5125 2 0 0
26 2 0.563621 0.66379 0.513 2 0 0
27 2 0.642991 0.670089 0.5135 2 0 0
28 2 0.722361 0.676389 0.514 2 0 0
29 2 0.801732 0.682689 0.5145 2 0 0
30 2 0.881102 0.688988 0.515 2 0 0
31 2 0.960472 0.695288 0.5155 2 0 0
32 2 0.0398417 0.701587 0.516 3 0 0
ITEM: TIMESTEP
100
ITEM: NUMBER OF ATOMS
32
ITEM: BOX BOUNDS
0 12.5992
0 12.5992
0 12.5992
ITEM: ATOMS id type xs ys zs ix iy iz
1 1 0.559542 0.49215 0.496389 0 0 0
2 1 0.643402 0.500737 0.494729 0 0 0
3 1 0.72959 0.513672 0.502083 0 0 0
4 1 0.815589 0.506866 0.492647 0 0 0
5 1 0.894614 0.521619 0.508975 0 0 0
6 1 0.974673 0.538356 0.506631 0 0 0
7 1 0.0547548 0.543421 0.509563 1 0 0
8 1 0.133707 0.548958 0.497836 1 0 0
9 1 0.213313 0.561551 0.500871 1 0 0
10 1 0.292226 0.569438 0.498643 1 0 0
11 1 0.369987 0.571919 0.509262 1 0 0
12 1 0.449462 0.578511 0.50564 1 0 0
13 1 0.528834 0.582542 0.511965 1 0 0
14 1 0.608592 0.591416 0.496106 1 0 0
15 1 0.687294 0.599865 0.512343 1 0 0
16 1 0.766199 0.615565 0.518775 1 0 0
17 2 0.843669 0.589997 0.50773 1 0 0
18 2 0.926102 0.607772 0.508788 1 0 0
19 2 0.00916967 0.618994 0.497839 2 0 0
20 2 0.0902341 0.624774 0.509241 2 0 0
21 2 0.168145 0.630003 0.519514 2 0 0
22 2 0.246196 0.642831 0.513824 2 0 0
23 2 0.325254 0.649712 0.512341 2 0 0
24 2 0.404556 0.652725 0.515739 2 0 0
25 2 0.482754 0.658222 0.497855 2 0 0
26 2 0.560127 0.665754 0.519123 2 0 0
27 2 0.641373 0.673608 0.508561 2 0 0
28 2 0.720239 0.690412 0.520388 2 0 0
29 2 0.803717 0.696474 0.512523 2 0 0
30 2 0.889461 0.689917 0.519182 2 0 0
31 2 0.977515 0.704315 0.51545 2 0 0
32 2 0.0822851 0.715568 0.515897 3 0 0
ITEM: TIMESTEP
200
ITEM: NUMBER OF ATOMS
32
ITEM: BOX BOUNDS
0 12.5992
0 12.5992
0 12.5992
ITEM: ATOMS id type xs ys zs ix iy iz
1 1 0.552367 0.464351 0.496026 0 0 0
2 1 0.638464 0.475546 0.499498 0 0 0
3 1 0.724044 0.491131 0.493865 0 0 0
4 1 0.807343 0.47305 0.481971 0 0 0
5 1 0.883959 0.497531 0.52205 0 0 0
6 1 0.963385 0.526832 0.514661 0 0 0
7 1 0.0457398 0.546154 0.528736 1 0 0
8 1 0.124036 0.557729 0.490411 1 0 0
9 1 0.208205 0.569866 0.502996 1 0 0
10 1 0.292418 0.583059 0.481221 1 0 0
11 1 0.369424 0.582758 0.52435 1 0 0
12 1 0.447105 0.587745 0.489557 1 0 0
13 1 0.527475 0.591478 0.524863 1 0 0
14 1 0.60669 0.608154 0.482145 1 0 0
15 1 0.701133 0.629283 0.522067 1 0 0
16 1 0.779301 0.651801 0.543864 1 0 0
17 2 0.803986 0.55511 0.507629 1 0 0
18 2 0.894591 0.582399 0.511595 1 0 0
19 2 0.988113 0.590464 0.460482 1 0 0
20 2 0.0787701 0.624649 0.503812 2 0 0
21 2 0.154684 0.616738 0.564655 2 0 0
22 2 0.239425 0.650009 0.503741 2 0 0
23 2 0.330728 0.657774 0.510348 2 0 0
24 2 0.424939 0.649361 0.542713 2 0 0
25 2 0.499668 0.647293 0.44618 2 0 0
26 2 0.561552 0.67023 0.550733 2 0 0
27 2 0.644928 0.686872 0.484144 2 0 0
28 2 0.713316 0.711712 0.544509 2 0 0
29 2 0.815693 0.72569 0.503006 2 0 0
30 2 0.907607 0.693738 0.533559 2 0 0
31 2 0.00855345 0.734119 0.519874 3 0 0
32 2 0.143465 0.747452 0.518025 3 0 0
ITEM: TIMESTEP
300
ITEM: NUMBER OF ATOMS
32
ITEM: BOX BOUNDS
0 12.5992
0 12.5992
0 12.5992
ITEM: ATOMS id type xs ys zs ix iy iz
1 1 0.563842 0.431869 0.500747 0 0 0
2 1 0.646313 0.445553 0.510824 0 0 0
3 1 0.720508 0.445878 0.474263 0 0 0
4 1 0.804397 0.439248 0.48405 0 0 0
5 1 0.880778 0.46411 0.530165 0 0 0
6 1 0.950368 0.52566 0.521712 0 0 0
7 1 0.0337734 0.560571 0.528887 1 0 0
8 1 0.118518 0.572257 0.498398 1 0 0
9 1 0.202551 0.586776 0.493964 1 0 0
10 1 0.287491 0.592329 0.481278 1 0 0
11 1 0.365558 0.59743 0.513313 1 0 0
12 1 0.44295 0.60969 0.491039 1 0 0
13 1 0.526416 0.626557 0.504165 1 0 0
14 1 0.611645 0.645448 0.512627 1 0 0
15 1 0.69877 0.669954 0.513473 1 0 0
16 1 0.775276 0.686173 0.555665 1 0 0
17 2 0.741371 0.526632 0.516271 1 0 0
18 2 0.858721 0.55485 0.529814 1 0 0
19 2 0.963144 0.52679 0.424319 1 0 0
20 2 0.061155 0.633193 0.49826 2 0 0
21 2 0.144168 0.563758 0.616126 2 0 0
22 2 0.23953 0.662368 0.481164 2 0 0
23 2 0.342989 0.673679 0.501456 2 0 0
24 2 0.46061 0.633546 0.574346 2 0 0
25 2 0.522316 0.612075 0.399009 2 0 0
26 2 0.565998 0.661022 0.576723 2 0 0
27 2 0.652357 0.702101 0.441899 2 0 0
28 2 0.69947 0.736301 0.583513 2 0 0
29 2 0.815783 0.756369 0.480203 2 0 0
30 2 0.917587 0.680846 0.558618 2 0 0
31 2 0.0369374 0.771118 0.535309 3 0 0
32 2 0.208652 0.783568 0.515286 3 0 0
ITEM: TIMESTEP
400
ITEM: NUMBER OF ATOMS
32
ITEM: BOX BOUNDS
0 12.5992
0 12.5992
0 12.5992
ITEM: ATOMS id type xs ys zs ix iy iz
1 1 0.573543 0.400902 0.506561 0 0 0
2 1 0.660212 0.415957 0.509914 0 0 0
3 1 0.727542 0.395901 0.461067 0 0 0
4 1 0.806079 0.437409 0.502883 0 0 0
5 1 0.890326 0.465992 0.5106 0 0 0
6 1 0.940189 0.53648 0.53016 0 0 0
7 1 0.0184165 0.571169 0.516559 1 0 0
8 1 0.101305 0.588119 0.519538 1 0 0
9 1 0.188278 0.60107 0.48904 1 0 0
10 1 0.28239 0.608398 0.487127 1 0 0
11 1 0.373832 0.608967 0.50029 1 0 0
12 1 0.464524 0.644504 0.51255 1 0 0
13 1 0.540391 0.685698 0.487519 1 0 0
14 1 0.615552 0.69462 0.527669 1 0 0
15 1 0.696883 0.720247 0.503919 1 0 0
16 1 0.765691 0.72803 0.551152 1 0 0
17 2 0.684085 0.492388 0.511574 1 0 0
18 2 0.835863 0.518127 0.54391 1 0 0
19 2 0.924948 0.448777 0.406461 1 0 0
20 2 0.0438785 0.644768 0.483036 2 0 0
21 2 0.132546 0.492586 0.650669 2 0 0
22 2 0.225947 0.671509 0.454428 2 0 0
23 2 0.355894 0.685826 0.483148 2 0 0
24 2 0.478472 0.599428 0.58912 2 0 0
25 2 0.539289 0.569956 0.372089 2 0 0
26 2 0.557209 0.641697 0.594968 2 0 0
27 2 0.652559 0.700904 0.404467 2 0 0
28 2 0.696567 0.749154 0.617534 2 0 0
29 2 0.80388 0.786056 0.454631 2 0 0
30 2 0.917482 0.645469 0.591197 2 0 0
31 2 0.068411 0.803399 0.550891 3 0 0
32 2 0.281172 0.827112 0.508913 3 0 0
ITEM: TIMESTEP
500
ITEM: NUMBER OF ATOMS
32
ITEM: BOX BOUNDS
0 12.5992
0 12.5992
0 12.5992
ITEM: ATOMS id type xs ys zs ix iy iz
1 1 0.586395 0.377204 0.517544 0 0 0
2 1 0.670786 0.357233 0.48595 0 0 0
3 1 0.754183 0.377241 0.485743 0 0 0
4 1 0.819663 0.436466 0.494624 0 0 0
5 1 0.884953 0.481057 0.486333 0 0 0
6 1 0.928051 0.541098 0.527362 0 0 0
7 1 0.0113254 0.577005 0.515891 1 0 0
8 1 0.0948747 0.614279 0.522384 1 0 0
9 1 0.185211 0.620356 0.503874 1 0 0
10 1 0.284191 0.639302 0.497871 1 0 0
11 1 0.39159 0.62506 0.503216 1 0 0
12 1 0.462892 0.665403 0.52904 1 0 0
13 1 0.530247 0.718653 0.497146 1 0 0
14 1 0.606881 0.740163 0.526799 1 0 0
15 1 0.688501 0.764275 0.498507 1 0 0
16 1 0.752748 0.780289 0.54824 1 0 0
17 2 0.642954 0.46037 0.503366 1 0 0
18 2 0.817501 0.490683 0.561985 1 0 0
19 2 0.878245 0.383692 0.416465 1 0 0
20 2 0.0410157 0.639996 0.460859 2 0 0
21 2 0.121351 0.422634 0.665045 2 0 0
22 2 0.22418 0.658626 0.431793 2 0 0
23 2 0.374464 0.703296 0.46391 2 0 0
24 2 0.461038 0.559158 0.576691 2 0 0
25 2 0.561779 0.527451 0.353926 2 0 0
26 2 0.58133 0.646807 0.586424 2 0 0
27 2 0.647882 0.685998 0.385987 2 0 0
28 2 0.692264 0.753437 0.623562 2 0 0
29 2 0.790705 0.799608 0.439302 2 0 0
30 2 0.907067 0.595497 0.617185 2 0 0
31 2 0.0940843 0.835399 0.568201 3 0 0
32 2 0.352217 0.872131 0.497732 3 0 0
ITEM: TIMESTEP
600
ITEM: NUMBER OF ATOMS
32
ITEM: BOX BOUNDS
0 12.5992
0 12.5992
0 12.5992
ITEM: ATOMS id type xs ys zs ix iy iz
1 1 0.618629 0.334558 0.53888 0 0 0
2 1 0.68146 0.334364 0.472742 0 0 0
3 1 0.763885 0.37005 0.491939 0 0 0
4 1 0.835585 0.421434 0.473046 0 0 0
5 1 0.884942 0.496435 0.469445 0 0 0
6 1 0.946405 0.550976 0.530986 0 0 0
7 1 0.026884 0.602306 0.534797 1 0 0
8 1 0.103637 0.631291 0.513078 1 0 0
9 1 0.202791 0.650349 0.521309 1 0 0
10 1 0.283211 0.653719 0.511116 1 0 0
11 1 0.368061 0.65843 0.524876 1 0 0
12 1 0.443958 0.678709 0.524847 1 0 0
13 1 0.516892 0.73715 0.529592 1 0 0
14 1 0.590403 0.771764 0.514994 1 0 0
15 1 0.671832 0.799955 0.497604 1 0 0
16 1 0.734351 0.825662 0.545557 1 0 0
17 2 0.613523 0.423033 0.480702 1 0 0
18 2 0.823123 0.464448 0.572885 1 0 0
19 2 0.819455 0.335404 0.44765 1 0 0
20 2 0.041486 0.619295 0.444311 2 0 0
21 2 0.120301 0.356135 0.680555 2 0 0
22 2 0.233234 0.631885 0.421577 2 0 0
23 2 0.397572 0.713457 0.446307 2 0 0
24 2 0.440869 0.531022 0.549893 2 0 0
25 2 0.585032 0.477475 0.329331 2 0 0
26 2 0.599046 0.681539 0.564222 2 0 0
27 2 0.638141 0.680994 0.387392 2 0 0
28 2 0.687752 0.771468 0.601808 2 0 0
29 2 0.777732 0.812884 0.44099 2 0 0
30 2 0.904775 0.548395 0.617722 2 0 0
31 2 0.112139 0.857107 0.577589 3 0 0
32 2 0.428113 0.905453 0.480048 3 0 0
ITEM: TIMESTEP
700
ITEM: NUMBER OF ATOMS
32
ITEM: BOX BOUNDS
0 12.5992
0 12.5992
0 12.5992
ITEM: ATOMS id type xs ys zs ix iy iz
1 1 0.664946 0.283541 0.540051 0 0 0
2 1 0.705602 0.33834 0.482991 0 0 0
3 1 0.753528 0.417174 0.496544 0 0 0
4 1 0.830934 0.420146 0.465834 0 0 0
5 1 0.89097 0.493698 0.499823 0 0 0
6 1 0.968185 0.549482 0.512782 0 0 0
7 1 0.034719 0.609326 0.543583 1 0 0
8 1 0.107079 0.640959 0.504121 1 0 0
9 1 0.191908 0.676337 0.517439 1 0 0
10 1 0.279366 0.670201 0.510126 1 0 0
11 1 0.35933 0.68739 0.548834 1 0 0
12 1 0.437079 0.702673 0.525536 1 0 0
13 1 0.517304 0.74171 0.550646 1 0 0
14 1 0.562832 0.803248 0.500886 1 0 0
15 1 0.653239 0.830981 0.507135 1 0 0
16 1 0.724659 0.866149 0.536092 1 0 0
17 2 0.617344 0.373974 0.460914 1 0 0
18 2 0.841256 0.43486 0.553063 1 0 0
19 2 0.776112 0.273147 0.463267 1 0 0
20 2 0.0445758 0.599465 0.460955 2 0 0
21 2 0.122671 0.287764 0.697418 2 0 0
22 2 0.237901 0.613679 0.433789 2 0 0
23 2 0.4151 0.721027 0.444694 2 0 0
24 2 0.418889 0.516623 0.519859 2 0 0
25 2 0.613345 0.429597 0.301939 2 0 0
26 2 0.595788 0.718791 0.536334 2 0 0
27 2 0.631911 0.680805 0.395988 2 0 0
28 2 0.678933 0.790689 0.57382 2 0 0
29 2 0.753987 0.823943 0.457348 2 0 0
30 2 0.921316 0.508626 0.593165 2 0 0
31 2 0.133031 0.866995 0.580976 3 0 0
32 2 0.511611 0.932131 0.461379 3 0 0
ITEM: TIMESTEP
800
ITEM: NUMBER OF ATOMS
32
ITEM: BOX BOUNDS
0 12.5992
0 12.5992
0 12.5992
ITEM: ATOMS id type xs ys zs ix iy iz
1 1 0.693171 0.269151 0.53433 0 0 0
2 1 0.737861 0.346541 0.501952 0 0 0
3 1 0.74953 0.435847 0.483 0 0 0
4 1 0.828912 0.465502 0.457523 0 0 0
5 1 0.90266 0.481394 0.495815 0 0 0
6 1 0.969779 0.527514 0.496494 0 0 0
7 1 0.027073 0.591361 0.54469 1 0 0
8 1 0.0953638 0.644777 0.508329 1 0 0
9 1 0.18612 0.684528 0.497879 1 0 0
10 1 0.281117 0.691695 0.50397 1 0 0
11 1 0.366524 0.719901 0.55047 1 0 0
12 1 0.450569 0.714878 0.546927 1 0 0
13 1 0.52223 0.768706 0.528878 1 0 0
14 1 0.543165 0.836421 0.494807 1 0 0
15 1 0.61766 0.873733 0.494362 1 0 0
16 1 0.689313 0.899365 0.515684 1 0 0
17 2 0.646081 0.309118 0.455906 1 0 0
18 2 0.864899 0.405932 0.548683 1 0 0
19 2 0.748842 0.219369 0.472276 1 0 0
20 2 0.04859 0.581108 0.469898 2 0 0
21 2 0.133037 0.220379 0.709321 2 0 0
22 2 0.236455 0.613779 0.466441 2 0 0
23 2 0.415114 0.724769 0.449368 2 0 0
24 2 0.398087 0.50988 0.491773 2 0 0
25 2 0.643421 0.386917 0.27716 2 0 0
26 2 0.595981 0.726616 0.529857 2 0 0
27 2 0.623464 0.687518 0.407495 2 0 0
28 2 0.663516 0.797915 0.568766 2 0 0
29 2 0.73836 0.824392 0.471379 2 0 0
30 2 0.9698 0.475232 0.576859 2 0 0
31 2 0.159032 0.871106 0.57908 3 0 0
32 2 0.599289 0.945513 0.454727 3 0 0
ITEM: TIMESTEP
900
ITEM: NUMBER OF ATOMS
32
ITEM: BOX BOUNDS
0 12.5992
0 12.5992
0 12.5992
ITEM: ATOMS id type xs ys zs ix iy iz
1 1 0.687822 0.300284 0.54803 0 0 0
2 1 0.754419 0.349723 0.521392 0 0 0
3 1 0.777882 0.415601 0.464337 0 0 0
4 1 0.813763 0.499827 0.46409 0 0 0
5 1 0.902729 0.469329 0.475259 0 0 0
6 1 0.990279 0.513462 0.511069 0 0 0
7 1 0.0356857 0.583543 0.532042 1 0 0
8 1 0.0996864 0.639432 0.531162 1 0 0
9 1 0.169412 0.683617 0.494285 1 0 0
10 1 0.26624 0.713231 0.501715 1 0 0
11 1 0.34659 0.725879 0.530637 1 0 0
12 1 0.441392 0.732362 0.549884 1 0 0
13 1 0.511349 0.778996 0.509032 1 0 0
14 1 0.509806 0.855758 0.481009 1 0 0
15 1 0.601448 0.883238 0.493526 1 0 0
16 1 0.67813 0.919859 0.519242 1 0 0
17 2 0.682135 0.256017 0.469736 1 0 0
18 2 0.883176 0.38563 0.542042 1 0 0
19 2 0.769285 0.157507 0.445588 1 0 0
20 2 0.0529227 0.560879 0.455139 2 0 0
21 2 0.1499 0.154072 0.719657 2 0 0
22 2 0.247986 0.611825 0.509012 2 0 0
23 2 0.41233 0.730315 0.47497 2 0 0
24 2 0.374709 0.503527 0.467007 2 0 0
25 2 0.679784 0.353117 0.257923 2 0 0
26 2 0.587322 0.738908 0.533065 2 0 0
27 2 0.621615 0.688473 0.414989 2 0 0
28 2 0.639316 0.823677 0.567623 2 0 0
29 2 0.719305 0.829141 0.477662 2 0 0
30 2 0.0260507 0.454197 0.554951 3 0 0
31 2 0.192793 0.859254 0.576974 3 0 0
32 2 0.678977 0.977637 0.441546 3 0 0
ITEM: TIMESTEP
1000
ITEM: NUMBER OF ATOMS
32
ITEM: BOX BOUNDS
0 12.5992
0 12.5992
0 12.5992
ITEM: ATOMS id type xs ys zs ix iy iz
1 1 0.687926 0.318115 0.550953 0 0 0
2 1 0.764122 0.351552 0.515858 0 0 0
3 1 0.808866 0.399368 0.464816 0 0 0
4 1 0.840116 0.481407 0.480737 0 0 0
5 1 0.919667 0.48696 0.469996 0 0 0
6 1 0.992658 0.502565 0.506679 0 0 0
7 1 0.0544651 0.563554 0.524497 1 0 0
8 1 0.113328 0.625157 0.548456 1 0 0
9 1 0.165199 0.676146 0.510788 1 0 0
10 1 0.247939 0.719652 0.509543 1 0 0
11 1 0.326025 0.727174 0.532096 1 0 0
12 1 0.40123 0.761519 0.546992 1 0 0
13 1 0.476131 0.780835 0.507882 1 0 0
14 1 0.512623 0.853396 0.482837 1 0 0
15 1 0.587279 0.891745 0.494929 1 0 0
16 1 0.665535 0.896673 0.520464 1 0 0
17 2 0.721418 0.231375 0.495253 1 0 0
18 2 0.888543 0.37767 0.52157 1 0 0
19 2 0.798635 0.101937 0.427383 1 0 0
20 2 0.056262 0.541605 0.441139 2 0 0
21 2 0.167565 0.0912121 0.735845 2 0 0
22 2 0.253454 0.622825 0.548384 2 0 0
23 2 0.422379 0.746643 0.454976 2 0 0
24 2 0.353759 0.500502 0.44095 2 0 0
25 2 0.7198 0.32548 0.239727 2 0 0
26 2 0.551348 0.748301 0.539099 2 0 0
27 2 0.62052 0.676999 0.426275 2 0 0
28 2 0.609539 0.85795 0.573113 2 0 0
29 2 0.699752 0.837528 0.477112 2 0 0
30 2 0.0719561 0.431805 0.530372 3 0 0
31 2 0.228692 0.836783 0.57478 3 0 0
32 2 0.744854 0.00980532 0.425885 3 1 0
ITEM: TIMESTEP
1100
ITEM: NUMBER OF ATOMS
32
ITEM: BOX BOUNDS
0 12.5992
0 12.5992
0 12.5992
ITEM: ATOMS id type xs ys zs ix iy iz
1 1 0.684877 0.317833 0.548685 0 0 0
2 1 0.757504 0.336565 0.50226 0 0 0
3 1 0.82243 0.387324 0.453781 0 0 0
4 1 0.869586 0.457338 0.500028 0 0 0
5 1 0.932627 0.492613 0.46036 0 0 0
6 1 0.0143831 0.492619 0.504322 1 0 0
7 1 0.0920224 0.529493 0.520786 1 0 0
8 1 0.126142 0.611728 0.565255 1 0 0
9 1 0.17056 0.665173 0.530015 1 0 0
10 1 0.230593 0.716895 0.521507 1 0 0
11 1 0.310229 0.712621 0.537135 1 0 0
12 1 0.358162 0.797296 0.525194 1 0 0
13 1 0.449593 0.811014 0.522134 1 0 0
14 1 0.532383 0.835284 0.485526 1 0 0
15 1 0.58193 0.90263 0.480299 1 0 0
16 1 0.640167 0.88859 0.534079 1 0 0
17 2 0.755343 0.234039 0.530974 1 0 0
18 2 0.911043 0.383675 0.503858 1 0 0
19 2 0.849249 0.0767987 0.412404 1 0 0
20 2 0.0506758 0.533262 0.438479 2 0 0
21 2 0.185853 0.0435115 0.758579 2 0 0
22 2 0.241063 0.658504 0.582867 2 0 0
23 2 0.410089 0.762386 0.450699 2 0 0
24 2 0.332409 0.495188 0.414034 2 0 0
25 2 0.756648 0.30564 0.220686 2 0 0
26 2 0.525343 0.753876 0.554545 2 0 0
27 2 0.613 0.658331 0.445797 2 0 0
28 2 0.584082 0.88353 0.59877 2 0 0
29 2 0.686518 0.821054 0.467656 2 0 0
30 2 0.0961574 0.429195 0.509005 3 0 0
31 2 0.265515 0.793502 0.571525 3 0 0
32 2 0.78163 0.00336976 0.423634 3 1 0
ITEM: TIMESTEP
1200
ITEM: NUMBER OF ATOMS
32
ITEM: BOX BOUNDS
0 12.5992
0 12.5992
0 12.5992
ITEM: ATOMS id type xs ys zs ix iy iz
1 1 0.688825 0.299778 0.540465 0 0 0
2 1 0.757363 0.31645 0.487525 0 0 0
3 1 0.823475 0.37888 0.461526 0 0 0
4 1 0.881238 0.438706 0.491652 0 0 0
5 1 0.956865 0.487357 0.473034 0 0 0
6 1 0.0394075 0.47333 0.496363 1 0 0
7 1 0.107379 0.511309 0.522481 1 0 0
8 1 0.132093 0.571545 0.575148 1 0 0
9 1 0.174658 0.647893 0.549818 1 0 0
10 1 0.227866 0.727331 0.533609 1 0 0
11 1 0.333526 0.70595 0.519511 1 0 0
12 1 0.337147 0.803519 0.51504 1 0 0
13 1 0.426883 0.845745 0.513008 1 0 0
14 1 0.524056 0.825058 0.509795 1 0 0
15 1 0.579984 0.881461 0.475756 1 0 0
16 1 0.619563 0.876127 0.545943 1 0 0
17 2 0.786527 0.261287 0.571924 1 0 0
18 2 0.958616 0.366738 0.489177 1 0 0
19 2 0.924465 0.0819398 0.4044 1 0 0
20 2 0.0404103 0.537249 0.44051 2 0 0
21 2 0.198507 0.000156415 0.777901 2 0 0
22 2 0.224903 0.688871 0.609879 2 0 0
23 2 0.401946 0.78348 0.4629 2 0 0
24 2 0.295344 0.494113 0.390069 2 0 0
25 2 0.794915 0.29716 0.20284 2 0 0
26 2 0.527269 0.75481 0.57474 2 0 0
27 2 0.598481 0.641687 0.463431 2 0 0
28 2 0.554813 0.905706 0.601847 2 0 0
29 2 0.667712 0.813127 0.465974 2 0 0
30 2 0.107914 0.432579 0.494803 3 0 0
31 2 0.29188 0.772016 0.578284 3 0 0
32 2 0.800593 0.962107 0.423343 3 0 0
ITEM: TIMESTEP
1300
ITEM: NUMBER OF ATOMS
32
ITEM: BOX BOUNDS
0 12.5992
0 12.5992
0 12.5992
ITEM: ATOMS id type xs ys zs ix iy iz
1 1 0.708269 0.271519 0.535576 0 0 0
2 1 0.766855 0.303998 0.460208 0 0 0
3 1 0.831544 0.374189 0.50269 0 0 0
4 1 0.897244 0.410502 0.470843 0 0 0
5 1 0.966823 0.469237 0.490153 0 0 0
6 1 0.0584708 0.458587 0.482442 1 0 0
7 1 0.113653 0.509463 0.524835 1 0 0
8 1 0.157536 0.566234 0.573315 1 0 0
9 1 0.200934 0.644457 0.578338 1 0 0
10 1 0.264435 0.685808 0.547937 1 0 0
11 1 0.295567 0.752949 0.492647 1 0 0
12 1 0.345869 0.808911 0.534617 1 0 0
13 1 0.411958 0.862886 0.506496 1 0 0
14 1 0.490341 0.842177 0.533963 1 0 0
15 1 0.554815 0.820266 0.493417 1 0 0
16 1 0.593521 0.860776 0.561754 1 0 0
17 2 0.80299 0.314514 0.599242 1 0 0
18 2 0.00189915 0.364423 0.469173 2 0 0
19 2 0.00229621 0.112217 0.390501 2 0 0
20 2 0.0194762 0.543091 0.454263 2 0 0
21 2 0.206105 0.965919 0.799821 2 -1 0
22 2 0.202926 0.709567 0.64053 2 0 0
23 2 0.422627 0.77621 0.445422 2 0 0
24 2 0.252103 0.509081 0.369736 2 0 0
25 2 0.830227 0.299062 0.192308 2 0 0
26 2 0.5264 0.768945 0.583296 2 0 0
27 2 0.588548 0.622432 0.483984 2 0 0
28 2 0.530783 0.92101 0.581144 2 0 0
29 2 0.636521 0.812195 0.474342 2 0 0
30 2 0.137122 0.398292 0.473902 3 0 0
31 2 0.29395 0.763144 0.58728 3 0 0
32 2 0.821822 0.91696 0.418863 3 0 0
ITEM: TIMESTEP
1400
ITEM: NUMBER OF ATOMS
32
ITEM: BOX BOUNDS
0 12.5992
0 12.5992
0 12.5992
ITEM: ATOMS id type xs ys zs ix iy iz
1 1 0.742795 0.252181 0.504624 0 0 0
2 1 0.787619 0.31404 0.488803 0 0 0
3 1 0.849287 0.35877 0.51955 0 0 0
4 1 0.925678 0.384198 0.475098 0 0 0
5 1 0.990251 0.440549 0.48854 0 0 0
6 1 0.0739887 0.452631 0.473624 1 0 0
7 1 0.118913 0.515525 0.520654 1 0 0
8 1 0.184199 0.567146 0.549847 1 0 0
9 1 0.23249 0.635725 0.59096 1 0 0
10 1 0.299575 0.676233 0.543317 1 0 0
11 1 0.273784 0.77463 0.513429 1 0 0
12 1 0.353872 0.821041 0.529274 1 0 0
13 1 0.406349 0.876602 0.508013 1 0 0
14 1 0.468814 0.842984 0.550316 1 0 0
15 1 0.536532 0.776439 0.512393 1 0 0
16 1 0.568695 0.835885 0.563837 1 0 0
17 2 0.816302 0.377401 0.600705 1 0 0
18 2 0.0370081 0.371507 0.458189 2 0 0
19 2 0.0853308 0.150419 0.387624 2 0 0
20 2 0.997976 0.530633 0.486946 1 0 0
21 2 0.215763 0.927303 0.827207 2 -1 0
22 2 0.183753 0.715139 0.657144 2 0 0
23 2 0.43214 0.774091 0.441713 2 0 0
24 2 0.203504 0.531216 0.351831 2 0 0
25 2 0.87098 0.296991 0.188343 2 0 0
26 2 0.51075 0.793239 0.609021 2 0 0
27 2 0.577535 0.591116 0.502348 2 0 0
28 2 0.51266 0.927085 0.55733 2 0 0
29 2 0.614065 0.815936 0.492214 2 0 0
30 2 0.148883 0.388805 0.458029 3 0 0
31 2 0.292956 0.752941 0.590465 3 0 0
32 2 0.838849 0.865913 0.421739 3 0 0
ITEM: TIMESTEP
1500
ITEM: NUMBER OF ATOMS
32
ITEM: BOX BOUNDS
0 12.5992
0 12.5992
0 12.5992
ITEM: ATOMS id type xs ys zs ix iy iz
1 1 0.759961 0.234689 0.469692 0 0 0
2 1 0.80433 0.322264 0.514083 0 0 0
3 1 0.882311 0.36209 0.538735 0 0 0
4 1 0.968637 0.361356 0.494395 0 0 0
5 1 0.00593076 0.442461 0.492406 1 0 0
6 1 0.0884736 0.463406 0.481878 1 0 0
7 1 0.140591 0.521478 0.512505 1 0 0
8 1 0.206024 0.572326 0.541465 1 0 0
9 1 0.26907 0.614922 0.574552 1 0 0
10 1 0.294926 0.678077 0.534094 1 0 0
11 1 0.281845 0.777129 0.524037 1 0 0
12 1 0.350725 0.830056 0.512419 1 0 0
13 1 0.410844 0.886007 0.511447 1 0 0
14 1 0.456163 0.819718 0.536249 1 0 0
15 1 0.520178 0.75968 0.513577 1 0 0
16 1 0.544776 0.828435 0.586775 1 0 0
17 2 0.843218 0.434605 0.576322 1 0 0
18 2 0.0666033 0.349876 0.444607 2 0 0
19 2 0.159245 0.186153 0.388916 2 0 0
20 2 0.980102 0.521391 0.526988 1 0 0
21 2 0.224142 0.885854 0.858743 2 -1 0
22 2 0.1727 0.710385 0.666124 2 0 0
23 2 0.435802 0.78304 0.458893 2 0 0
24 2 0.150086 0.552973 0.351916 2 0 0
25 2 0.915695 0.291809 0.191734 2 0 0
26 2 0.491541 0.808382 0.651239 2 0 0
27 2 0.562913 0.560947 0.520134 2 0 0
28 2 0.493455 0.925061 0.532384 2 0 0
29 2 0.581879 0.817774 0.497369 2 0 0
30 2 0.162123 0.402235 0.449191 3 0 0
31 2 0.30413 0.748946 0.616251 3 0 0
32 2 0.855459 0.820675 0.42595 3 0 0
ITEM: TIMESTEP
1600
ITEM: NUMBER OF ATOMS
32
ITEM: BOX BOUNDS
0 12.5992
0 12.5992
0 12.5992
ITEM: ATOMS id type xs ys zs ix iy iz
1 1 0.795364 0.282039 0.44078 0 0 0
2 1 0.836312 0.30491 0.521426 0 0 0
3 1 0.899442 0.349164 0.528432 0 0 0
4 1 0.982341 0.364557 0.519449 0 0 0
5 1 0.0261206 0.428871 0.488819 1 0 0
6 1 0.0950137 0.459992 0.473441 1 0 0
7 1 0.167346 0.519234 0.497324 1 0 0
8 1 0.219882 0.58259 0.543875 1 0 0
9 1 0.304252 0.59444 0.5715 1 0 0
10 1 0.299918 0.692034 0.534507 1 0 0
11 1 0.292595 0.776182 0.533968 1 0 0
12 1 0.328812 0.834864 0.487039 1 0 0
13 1 0.409138 0.875984 0.510268 1 0 0
14 1 0.452842 0.82411 0.553624 1 0 0
15 1 0.508441 0.745008 0.5388 1 0 0
16 1 0.529173 0.810937 0.597514 1 0 0
17 2 0.881145 0.461634 0.54178 1 0 0
18 2 0.0701086 0.350221 0.443637 2 0 0
19 2 0.229523 0.214763 0.379881 2 0 0
20 2 0.973474 0.494285 0.551439 1 0 0
21 2 0.235364 0.845119 0.898138 2 -1 0
22 2 0.169738 0.705846 0.662936 2 0 0
23 2 0.41789 0.782883 0.469775 2 0 0
24 2 0.0968731 0.573538 0.369934 2 0 0
25 2 0.966368 0.286198 0.199191 2 0 0
26 2 0.467538 0.82263 0.673838 2 0 0
27 2 0.545283 0.541283 0.533892 2 0 0
28 2 0.488508 0.921552 0.506517 2 0 0
29 2 0.558218 0.840453 0.501327 2 0 0
30 2 0.177727 0.439094 0.453015 3 0 0
31 2 0.323968 0.7375 0.596671 3 0 0
32 2 0.864824 0.777058 0.425288 3 0 0
ITEM: TIMESTEP
1700
ITEM: NUMBER OF ATOMS
32
ITEM: BOX BOUNDS
0 12.5992
0 12.5992
0 12.5992
ITEM: ATOMS id type xs ys zs ix iy iz
1 1 0.833566 0.323691 0.434985 0 0 0
2 1 0.852718 0.28637 0.503097 0 0 0
3 1 0.911739 0.344956 0.5198 0 0 0
4 1 1.00174 0.378304 0.558066 0 0 0
5 1 0.0387372 0.445152 0.485606 1 0 0
6 1 0.117527 0.481616 0.465782 1 0 0
7 1 0.173928 0.549261 0.501274 1 0 0
8 1 0.244808 0.568954 0.542584 1 0 0
9 1 0.325309 0.606609 0.544665 1 0 0
10 1 0.29365 0.695032 0.545256 1 0 0
11 1 0.292678 0.770053 0.502489 1 0 0
12 1 0.315945 0.841944 0.470604 1 0 0
13 1 0.390249 0.861036 0.500802 1 0 0
14 1 0.448802 0.831987 0.551083 1 0 0
15 1 0.486228 0.746694 0.563272 1 0 0
16 1 0.538513 0.789976 0.617569 1 0 0
17 2 0.919309 0.453124 0.510637 1 0 0
18 2 0.0551025 0.352867 0.444523 2 0 0
19 2 0.299941 0.240979 0.370436 2 0 0
20 2 0.999948 0.457959 0.568696 1 0 0
21 2 0.24273 0.804298 0.937381 2 -1 0
22 2 0.172458 0.693285 0.651117 2 0 0
23 2 0.37083 0.777624 0.490257 2 0 0
24 2 0.0495151 0.600282 0.400262 2 0 0
25 2 0.0161329 0.274103 0.203471 3 0 0
26 2 0.451409 0.828542 0.667721 2 0 0
27 2 0.52552 0.522939 0.547552 2 0 0
28 2 0.485495 0.931171 0.497152 2 0 0
29 2 0.523749 0.85623 0.513402 2 0 0
30 2 0.207845 0.456702 0.447148 3 0 0
31 2 0.369937 0.71962 0.60496 3 0 0
32 2 0.870477 0.727683 0.428941 3 0 0
ITEM: TIMESTEP
1800
ITEM: NUMBER OF ATOMS
32
ITEM: BOX BOUNDS
0 12.5992
0 12.5992
0 12.5992
ITEM: ATOMS id type xs ys zs ix iy iz
1 1 0.864115 0.362039 0.437249 0 0 0
2 1 0.886625 0.298822 0.481809 0 0 0
3 1 0.941512 0.338387 0.52162 0 0 0
4 1 0.0267288 0.383167 0.523951 1 0 0
5 1 0.0632694 0.457789 0.518142 1 0 0
6 1 0.123422 0.508621 0.4798 1 0 0
7 1 0.18243 0.57316 0.499165 1 0 0
8 1 0.255357 0.538686 0.523448 1 0 0
9 1 0.312677 0.619393 0.534289 1 0 0
10 1 0.300191 0.702142 0.542603 1 0 0
11 1 0.249526 0.764927 0.486869 1 0 0
12 1 0.306724 0.844296 0.457449 1 0 0
13 1 0.386907 0.870712 0.489356 1 0 0
14 1 0.420354 0.828009 0.55618 1 0 0
15 1 0.478439 0.776359 0.593861 1 0 0
16 1 0.549125 0.769993 0.637612 1 0 0
17 2 0.945117 0.408371 0.478753 1 0 0
18 2 0.0288009 0.343972 0.456485 2 0 0
19 2 0.377029 0.268012 0.364636 2 0 0
20 2 0.047363 0.480918 0.604542 2 0 0
21 2 0.246764 0.764734 0.970213 2 -1 0
22 2 0.183577 0.664016 0.628049 2 0 0
23 2 0.365018 0.754967 0.507981 2 0 0
24 2 0.0175103 0.615817 0.438148 2 0 0
25 2 0.070476 0.26089 0.210046 3 0 0
26 2 0.440837 0.827585 0.639675 2 0 0
27 2 0.505315 0.515067 0.553794 2 0 0
28 2 0.461262 0.939132 0.494304 2 0 0
29 2 0.510136 0.842226 0.521253 2 0 0
30 2 0.23033 0.479527 0.44899 3 0 0
31 2 0.406579 0.707505 0.5864 3 0 0
32 2 0.879369 0.678353 0.435511 3 0 0
ITEM: TIMESTEP
1900
ITEM: NUMBER OF ATOMS
32
ITEM: BOX BOUNDS
0 12.5992
0 12.5992
0 12.5992
ITEM: ATOMS id type xs ys zs ix iy iz
1 1 0.883616 0.404948 0.444653 0 0 0
2 1 0.926891 0.323952 0.455024 0 0 0
3 1 0.989778 0.325204 0.522631 0 0 0
4 1 0.024183 0.407812 0.511117 1 0 0
5 1 0.0992482 0.464961 0.553908 1 0 0
6 1 0.11774 0.541336 0.491689 1 0 0
7 1 0.207835 0.571503 0.504365 1 0 0
8 1 0.28343 0.546737 0.515341 1 0 0
9 1 0.27452 0.627197 0.532339 1 0 0
10 1 0.290956 0.705879 0.530209 1 0 0
11 1 0.248543 0.77125 0.500143 1 0 0
12 1 0.31501 0.82154 0.467954 1 0 0
13 1 0.375521 0.866124 0.48615 1 0 0
14 1 0.406854 0.821954 0.549036 1 0 0
15 1 0.476281 0.776244 0.597395 1 0 0
16 1 0.540012 0.762269 0.649882 1 0 0
17 2 0.967759 0.387525 0.447063 1 0 0
18 2 0.0154477 0.302792 0.446596 2 0 0
19 2 0.460206 0.300224 0.361947 2 0 0
20 2 0.0974568 0.490146 0.634773 2 0 0
21 2 0.249029 0.732431 0.999322 2 -1 0
22 2 0.215487 0.625876 0.58541 2 0 0
23 2 0.35817 0.768453 0.507067 2 0 0
24 2 0.0027739 0.627613 0.480054 2 0 0
25 2 0.118854 0.251412 0.222515 3 0 0
26 2 0.410546 0.846439 0.641017 2 0 0
27 2 0.486522 0.510697 0.557978 2 0 0
28 2 0.411779 0.936689 0.495863 2 0 0
29 2 0.487172 0.823132 0.525747 2 0 0
30 2 0.233411 0.508055 0.453513 3 0 0
31 2 0.435141 0.700093 0.55819 3 0 0
32 2 0.882327 0.639336 0.444814 3 0 0
ITEM: TIMESTEP
2000
ITEM: NUMBER OF ATOMS
32
ITEM: BOX BOUNDS
0 12.5992
0 12.5992
0 12.5992
ITEM: ATOMS id type xs ys zs ix iy iz
1 1 0.902501 0.412499 0.454666 0 0 0
2 1 0.951339 0.340317 0.45234 0 0 0
3 1 0.0223071 0.346302 0.500338 1 0 0
4 1 0.0368489 0.418984 0.516332 1 0 0
5 1 0.0903104 0.477405 0.544071 1 0 0
6 1 0.127992 0.546998 0.539894 1 0 0
7 1 0.207673 0.549548 0.519658 1 0 0
8 1 0.292695 0.542564 0.505706 1 0 0
9 1 0.313405 0.625041 0.487719 1 0 0
10 1 0.289233 0.706746 0.532962 1 0 0
11 1 0.237935 0.792233 0.507882 1 0 0
12 1 0.295683 0.82437 0.453805 1 0 0
13 1 0.375481 0.841754 0.480455 1 0 0
14 1 0.410047 0.8155 0.562107 1 0 0
15 1 0.440091 0.757696 0.618523 1 0 0
16 1 0.527498 0.757308 0.648314 1 0 0
17 2 0.0189281 0.444922 0.433552 2 0 0
18 2 0.020392 0.239236 0.445321 2 0 0
19 2 0.543801 0.338175 0.360458 2 0 0
20 2 0.147799 0.495014 0.647223 2 0 0
21 2 0.253462 0.697186 0.0335452 2 -1 1
22 2 0.179496 0.588956 0.599149 2 0 0
23 2 0.345056 0.774491 0.520824 2 0 0
24 2 0.998157 0.635861 0.522845 1 0 0
25 2 0.166556 0.233921 0.234133 3 0 0
26 2 0.383559 0.85025 0.638179 2 0 0
27 2 0.470113 0.507129 0.570534 2 0 0
28 2 0.37203 0.958855 0.506838 2 0 0
29 2 0.489319 0.822632 0.491868 2 0 0
30 2 0.239151 0.52901 0.443143 3 0 0
31 2 0.460672 0.705201 0.541966 3 0 0
32 2 0.868977 0.597238 0.446689 3 0 0
ITEM: TIMESTEP
2100
ITEM: NUMBER OF ATOMS
32
ITEM: BOX BOUNDS
0 12.5992
0 12.5992
0 12.5992
ITEM: ATOMS id type xs ys zs ix iy iz
1 1 0.928549 0.420184 0.450518 0 0 0
2 1 0.966985 0.350309 0.439423 0 0 0
3 1 0.0612209 0.338685 0.469478 1 0 0
4 1 0.0323467 0.412713 0.505667 1 0 0
5 1 0.0811934 0.474918 0.554249 1 0 0
6 1 0.136433 0.565125 0.550076 1 0 0
7 1 0.206969 0.523633 0.535782 1 0 0
8 1 0.286299 0.575578 0.501557 1 0 0
9 1 0.344793 0.63935 0.474711 1 0 0
10 1 0.273478 0.693188 0.504843 1 0 0
11 1 0.237983 0.780058 0.519265 1 0 0
12 1 0.292467 0.837411 0.47131 1 0 0
13 1 0.390754 0.829733 0.472571 1 0 0
14 1 0.410506 0.793293 0.544112 1 0 0
15 1 0.427483 0.752415 0.611587 1 0 0
16 1 0.502454 0.753909 0.630554 1 0 0
17 2 0.0671816 0.472155 0.443666 2 0 0
18 2 0.0179794 0.203486 0.463406 2 0 0
19 2 0.617505 0.373242 0.3637 2 0 0
20 2 0.191569 0.491963 0.637951 2 0 0
21 2 0.253152 0.654364 0.0585784 2 -1 1
22 2 0.176641 0.585014 0.657446 2 0 0
23 2 0.339881 0.757168 0.534933 2 0 0
24 2 0.00526041 0.628281 0.569622 2 0 0
25 2 0.209225 0.214794 0.249404 3 0 0
26 2 0.355768 0.838129 0.642758 2 0 0
27 2 0.452986 0.500891 0.582651 2 0 0
28 2 0.327884 0.963579 0.513397 2 0 0
29 2 0.471 0.818398 0.469797 2 0 0
30 2 0.244267 0.560489 0.424324 3 0 0
31 2 0.471651 0.722072 0.55023 3 0 0
32 2 0.854743 0.555752 0.443868 3 0 0
ITEM: TIMESTEP
2200
ITEM: NUMBER OF ATOMS
32
ITEM: BOX BOUNDS
0 12.5992
0 12.5992
0 12.5992
ITEM: ATOMS id type xs ys zs ix iy iz
1 1 0.945759 0.429583 0.440719 0 0 0
2 1 0.983524 0.361977 0.428113 0 0 0
3 1 0.0819194 0.35869 0.438496 1 0 0
4 1 0.073699 0.412479 0.506594 1 0 0
5 1 0.0723648 0.487154 0.553067 1 0 0
6 1 0.139669 0.529269 0.558274 1 0 0
7 1 0.222427 0.536659 0.541548 1 0 0
8 1 0.27168 0.595296 0.513774 1 0 0
9 1 0.331796 0.640242 0.491685 1 0 0
10 1 0.268563 0.693473 0.46442 1 0 0
11 1 0.243535 0.770242 0.505582 1 0 0
12 1 0.292511 0.836279 0.525454 1 0 0
13 1 0.375417 0.82121 0.479928 1 0 0
14 1 0.427106 0.790671 0.5384 1 0 0
15 1 0.39831 0.756909 0.615962 1 0 0
16 1 0.490702 0.75419 0.637101 1 0 0
17 2 0.115406 0.479571 0.482211 2 0 0
18 2 0.0179894 0.193577 0.486803 2 0 0