ITEM: TIMESTEP
0
ITEM: NUMBER OF ATOMS
16
ITEM: BOX BOUNDS
0 12.5992
0 12.5992
0 12.5992
ITEM: ATOMS id type xs ys zs
1 1 0.57937 0.5063 0.5005
2 1 0.65874 0.525198 0.502
3 1 0.73811 0.556696 0.5045
4 1 0.81748 0.600794 0.508
5 1 0.89685 0.65749 0.5125
6 1 0.97622 0.726786 0.518
7 1 0.0555904 0.808681 0.5245
8 1 0.13496 0.903175 0.532
9 2 0.214331 0.0102681 0.5405
10 2 0.293701 0.129961 0.55
11 2 0.373071 0.262252 0.5605
12 2 0.452441 0.407143 0.572
13 2 0.531811 0.564633 0.5845
14 2 0.611181 0.734723 0.598
15 2 0.690551 0.917411 0.6125
16 2 0.769921 0.112699 0.628
ITEM: TIMESTEP
100
ITEM: NUMBER OF ATOMS
16
ITEM: BOX BOUNDS
0 12.5992
0 12.5992
0 12.5992
ITEM: ATOMS id type xs ys zs
1 1 0.576505 0.5034 0.504012
2 1 0.660042 0.531753 0.499332
3 1 0.742225 0.571932 0.504016
4 1 0.820199 0.615956 0.506835
5 1 0.906261 0.671905 0.520093
6 1 0.986986 0.746093 0.524086
7 1 0.0525396 0.809717 0.525297
8 1 0.105494 0.8702 0.527604
9 2 0.210392 0.00111567 0.530022
10 2 0.288818 0.132558 0.547257
11 2 0.372475 0.262092 0.559036
12 2 0.454191 0.410119 0.574483
13 2 0.532582 0.563111 0.57876
14 2 0.613706 0.725349 0.591273
15 2 0.691923 0.912958 0.613084
16 2 0.769557 0.111635 0.631604
ITEM: TIMESTEP
200
ITEM: NUMBER OF ATOMS
16
ITEM: BOX BOUNDS
0 12.5992
0 12.5992
0 12.5992
ITEM: ATOMS id type xs ys zs
1 1 0.585228 0.507625 0.51675
2 1 0.659079 0.551851 0.511296
3 1 0.744821 0.594986 0.497514
4 1 0.823942 0.642278 0.511402
5 1 0.897341 0.676977 0.525442
6 1 0.976448 0.740051 0.537779
7 1 0.027205 0.800634 0.53453
8 1 0.0895244 0.867017 0.52236
9 2 0.195702 0.977626 0.514931
10 2 0.272429 0.142012 0.541292
11 2 0.382394 0.26424 0.560038
12 2 0.463163 0.427589 0.570145
13 2 0.54193 0.558054 0.561876
14 2 0.626194 0.701885 0.578281
15 2 0.695837 0.903381 0.611466
16 2 0.779408 0.110454 0.637771
ITEM: TIMESTEP
300
ITEM: NUMBER OF ATOMS
16
ITEM: BOX BOUNDS
0 12.5992
0 12.5992
0 12.5992
ITEM: ATOMS id type xs ys zs
1 1 0.620669 0.4932 0.518636
2 1 0.637614 0.582131 0.535293
3 1 0.729571 0.601889 0.489028
4 1 0.811733 0.663523 0.520064
5 1 0.885666 0.685861 0.537532
6 1 0.969268 0.737167 0.551493
7 1 0.0161464 0.809249 0.544015
8 1 0.0755715 0.879348 0.523026
9 2 0.168675 0.946717 0.507056
10 2 0.249271 0.157737 0.53347
11 2 0.396943 0.265739 0.562855
12 2 0.481174 0.44522 0.555323
13 2 0.551434 0.572313 0.560085
14 2 0.6515 0.668316 0.565799
15 2 0.710524 0.890513 0.60669
16 2 0.796188 0.106708 0.648265
ITEM: TIMESTEP
400
ITEM: NUMBER OF ATOMS
16
ITEM: BOX BOUNDS
0 12.5992
0 12.5992
0 12.5992
ITEM: ATOMS id type xs ys zs
1 1 0.626332 0.49398 0.540492
2 1 0.660942 0.563736 0.533394
3 1 0.709408 0.616346 0.497018
4 1 0.795822 0.668183 0.525697
5 1 0.875957 0.698658 0.560856
6 1 0.955148 0.744063 0.566902
7 1 0.00329603 0.822989 0.553883
8 1 0.0513595 0.885627 0.5309
9 2 0.128848 0.910515 0.504204
10 2 0.219277 0.165659 0.527074
11 2 0.408925 0.267013 0.55795
12 2 0.50581 0.465945 0.536191
13 2 0.544653 0.572881 0.551903
14 2 0.704987 0.68069 0.577538
15 2 0.734292 0.877589 0.602458
16 2 0.809726 0.0958559 0.659031
ITEM: TIMESTEP
500
ITEM: NUMBER OF ATOMS
16
ITEM: BOX BOUNDS
0 12.5992
0 12.5992
0 12.5992
ITEM: ATOMS id type xs ys zs
1 1 0.601812 0.495523 0.571889
2 1 0.691637 0.529969 0.536823
3 1 0.73181 0.624518 0.487643
4 1 0.775845 0.664011 0.540976
5 1 0.85327 0.717261 0.575587
6 1 0.924159 0.760382 0.572366
7 1 0.982423 0.824745 0.567516
8 1 0.0108904 0.907789 0.541094
9 2 0.102859 0.87618 0.491494
10 2 0.184928 0.167284 0.508316
11 2 0.420672 0.260784 0.546981
12 2 0.540739 0.48592 0.515733
13 2 0.552202 0.569916 0.542998
14 2 0.764974 0.724655 0.62248
15 2 0.761773 0.859008 0.596971
16 2 0.819804 0.0792229 0.67033
ITEM: TIMESTEP
600
ITEM: NUMBER OF ATOMS
16
ITEM: BOX BOUNDS
0 12.5992
0 12.5992
0 12.5992
ITEM: ATOMS id type xs ys zs
1 1 0.624086 0.524479 0.585915
2 1 0.67617 0.531763 0.524304
3 1 0.735627 0.59045 0.525282
4 1 0.757875 0.666322 0.566603
5 1 0.836436 0.719664 0.555452
6 1 0.89628 0.785034 0.576029
7 1 0.954075 0.840495 0.576922
8 1 0.968065 0.91066 0.548597
9 2 0.0651265 0.836108 0.480618
10 2 0.144462 0.16269 0.484145
11 2 0.438792 0.253747 0.53508
12 2 0.560789 0.491033 0.480534
13 2 0.575185 0.574504 0.538689
14 2 0.815454 0.742841 0.666043
15 2 0.797022 0.831341 0.585147
16 2 0.845245 0.0611972 0.67935
ITEM: TIMESTEP
700
ITEM: NUMBER OF ATOMS
16
ITEM: BOX BOUNDS
0 12.5992
0 12.5992
0 12.5992
ITEM: ATOMS id type xs ys zs
1 1 0.623243 0.53873 0.590601
2 1 0.655709 0.536687 0.513195
3 1 0.728807 0.574248 0.560026
4 1 0.752528 0.678144 0.572849
5 1 0.812843 0.731963 0.550644
6 1 0.901891 0.761698 0.586832
7 1 0.936558 0.855248 0.593684
8 1 0.93161 0.937004 0.547452
9 2 0.0151027 0.794537 0.481119
10 2 0.100032 0.155322 0.449355
11 2 0.462257 0.249219 0.516089
12 2 0.60385 0.492962 0.46072
13 2 0.619964 0.605455 0.534828
14 2 0.859259 0.751951 0.704373
15 2 0.785958 0.816051 0.548557
16 2 0.880223 0.0407953 0.685554
ITEM: TIMESTEP
800
ITEM: NUMBER OF ATOMS
16
ITEM: BOX BOUNDS
0 12.5992
0 12.5992
0 12.5992
ITEM: ATOMS id type xs ys zs
1 1 0.613623 0.54864 0.581863
2 1 0.68067 0.540795 0.521047
3 1 0.701129 0.601559 0.585531
4 1 0.754642 0.666461 0.562966
5 1 0.819938 0.747365 0.581948
6 1 0.901897 0.763166 0.584516
7 1 0.89924 0.840583 0.587733
8 1 0.892888 0.929667 0.573008
9 2 0.960736 0.759119 0.490125
10 2 0.057357 0.156508 0.406893
11 2 0.488374 0.242794 0.497981
12 2 0.650961 0.491635 0.442609
13 2 0.667477 0.674287 0.544226
14 2 0.902231 0.75488 0.725885
15 2 0.743294 0.796698 0.50867
16 2 0.922419 0.0114888 0.682778
ITEM: TIMESTEP
900
ITEM: NUMBER OF ATOMS
16
ITEM: BOX BOUNDS
0 12.5992
0 12.5992
0 12.5992
ITEM: ATOMS id type xs ys zs
1 1 0.606055 0.548533 0.555961
2 1 0.699953 0.565191 0.548972
3 1 0.716968 0.635469 0.601962
4 1 0.761728 0.669906 0.547469
5 1 0.809685 0.725714 0.610513
6 1 0.879187 0.753268 0.582863
7 1 0.875947 0.835884 0.581333
8 1 0.857761 0.937503 0.598708
9 2 0.907066 0.726657 0.506148
10 2 0.0201786 0.154865 0.361983
11 2 0.514975 0.228456 0.482081
12 2 0.690595 0.489706 0.429029
13 2 0.701782 0.732176 0.553707
14 2 0.933127 0.759181 0.726706
15 2 0.717033 0.770991 0.477445
16 2 0.946774 0.980273 0.669695
ITEM: TIMESTEP
1000
ITEM: NUMBER OF ATOMS
16
ITEM: BOX BOUNDS
0 12.5992
0 12.5992
0 12.5992
ITEM: ATOMS id type xs ys zs
1 1 0.629744 0.540661 0.530321
2 1 0.680254 0.592902 0.574454
3 1 0.728331 0.661025 0.59546
4 1 0.781032 0.685315 0.531889
5 1 0.804922 0.700004 0.610801
6 1 0.863379 0.765111 0.600588
7 1 0.854827 0.843017 0.586169
8 1 0.840111 0.922694 0.628175
9 2 0.858186 0.692406 0.520595
10 2 0.98962 0.154 0.322178
11 2 0.541378 0.208603 0.471288
12 2 0.730925 0.49353 0.424457
13 2 0.732227 0.741458 0.610318
14 2 0.946787 0.76121 0.714711
15 2 0.710754 0.76016 0.429647
16 2 0.958565 0.940461 0.643243
ITEM: TIMESTEP
1100
ITEM: NUMBER OF ATOMS
16
ITEM: BOX BOUNDS
0 12.5992
0 12.5992
0 12.5992
ITEM: ATOMS id type xs ys zs
1 1 0.664118 0.545697 0.52072
2 1 0.658176 0.604104 0.581272
3 1 0.723048 0.672378 0.583227
4 1 0.771544 0.7047 0.519551
5 1 0.827475 0.674155 0.614532
6 1 0.858484 0.768397 0.609094
7 1 0.84268 0.855747 0.59412
8 1 0.84171 0.915376 0.661661
9 2 0.855241 0.663082 0.532069
10 2 0.959051 0.158145 0.292194
11 2 0.562822 0.195696 0.464532
12 2 0.761454 0.511927 0.43591
13 2 0.773153 0.763672 0.656536
14 2 0.943343 0.765965 0.688041
15 2 0.706836 0.741115 0.378904
16 2 0.950976 0.885983 0.609379
ITEM: TIMESTEP
1200
ITEM: NUMBER OF ATOMS
16
ITEM: BOX BOUNDS
0 12.5992
0 12.5992
0 12.5992
ITEM: ATOMS id type xs ys zs
1 1 0.699679 0.565094 0.513816
2 1 0.651735 0.609645 0.570069
3 1 0.710589 0.676888 0.554139
4 1 0.788214 0.709439 0.529805
5 1 0.838407 0.686335 0.640558
6 1 0.862071 0.772666 0.610294
7 1 0.854707 0.847248 0.628652
8 1 0.854885 0.907689 0.679031
9 2 0.852873 0.64397 0.509341
10 2 0.92659 0.167345 0.26395
11 2 0.583892 0.188445 0.460807
12 2 0.780371 0.546395 0.461579
13 2 0.814573 0.778946 0.687975
14 2 0.924159 0.77217 0.657904
15 2 0.695912 0.717351 0.346568
16 2 0.92002 0.827864 0.570221
ITEM: TIMESTEP
1300
ITEM: NUMBER OF ATOMS
16
ITEM: BOX BOUNDS
0 12.5992
0 12.5992
0 12.5992
ITEM: ATOMS id type xs ys zs
1 1 0.726518 0.571087 0.517397
2 1 0.653818 0.623673 0.53588
3 1 0.710407 0.682687 0.51467
4 1 0.797209 0.680445 0.576761
5 1 0.840818 0.686128 0.642768
6 1 0.844557 0.770923 0.586077
7 1 0.876511 0.83134 0.656523
8 1 0.8796 0.908678 0.705748
9 2 0.836059 0.656693 0.508146
10 2 0.888562 0.182045 0.229504
11 2 0.609752 0.175168 0.462334
12 2 0.811172 0.577586 0.485671
13 2 0.83639 0.781268 0.709119
14 2 0.935556 0.770983 0.652628
15 2 0.682945 0.690591 0.325172
16 2 0.90196 0.804618 0.519736
ITEM: TIMESTEP
1400
ITEM: NUMBER OF ATOMS
16
ITEM: BOX BOUNDS
0 12.5992
0 12.5992
0 12.5992
ITEM: ATOMS id type xs ys zs
1 1 0.737123 0.569058 0.515807
2 1 0.694333 0.632035 0.496521
3 1 0.757075 0.678425 0.511981
4 1 0.754898 0.642755 0.590718
5 1 0.840224 0.69477 0.623797
6 1 0.845258 0.778461 0.607172
7 1 0.885948 0.828911 0.669254
8 1 0.919778 0.886775 0.727079
9 2 0.826939 0.728538 0.532035
10 2 0.853923 0.20722 0.200783
11 2 0.637359 0.174048 0.471465
12 2 0.819249 0.558045 0.488902
13 2 0.844334 0.771316 0.716137
14 2 0.942962 0.742945 0.646701
15 2 0.682951 0.671379 0.312577
16 2 0.910587 0.80707 0.456431
ITEM: TIMESTEP
1500
ITEM: NUMBER OF ATOMS
16
ITEM: BOX BOUNDS
0 12.5992
0 12.5992
0 12.5992
ITEM: ATOMS id type xs ys zs
1 1 0.725935 0.548812 0.497532
2 1 0.757242 0.632406 0.447137
3 1 0.804279 0.672717 0.527452
4 1 0.748089 0.647231 0.588517
5 1 0.855331 0.702711 0.594316
6 1 0.863611 0.775837 0.629019
7 1 0.916547 0.820287 0.684964
8 1 0.956827 0.860716 0.73744
9 2 0.784829 0.769762 0.558004
10 2 0.829061 0.229399 0.176109
11 2 0.659687 0.181824 0.482367
12 2 0.821662 0.546986 0.491843
13 2 0.847347 0.755954 0.715755
14 2 0.927497 0.72152 0.641414
15 2 0.680365 0.658783 0.306868
16 2 0.916115 0.803067 0.409716
ITEM: TIMESTEP
1600
ITEM: NUMBER OF ATOMS
16
ITEM: BOX BOUNDS
0 12.5992
0 12.5992
0 12.5992
ITEM: ATOMS id type xs ys zs
1 1 0.732364 0.581909 0.436008
2 1 0.826814 0.591559 0.433387
3 1 0.828768 0.667236 0.502569
4 1 0.780948 0.679444 0.597
5 1 0.84573 0.732936 0.563717
6 1 0.854972 0.775993 0.632197
7 1 0.940762 0.804715 0.701799
8 1 0.995342 0.838469 0.753859
9 2 0.747363 0.77663 0.5854
10 2 0.818587 0.257089 0.158674
11 2 0.685866 0.179812 0.493451
12 2 0.807113 0.52993 0.502206
13 2 0.856639 0.737738 0.733245
14 2 0.919916 0.682661 0.618589
15 2 0.674619 0.640791 0.306201
16 2 0.923167 0.793373 0.37022
ITEM: TIMESTEP
1700
ITEM: NUMBER OF ATOMS
16
ITEM: BOX BOUNDS
0 12.5992
0 12.5992
0 12.5992
ITEM: ATOMS id type xs ys zs
1 1 0.790661 0.62124 0.363535
2 1 0.84238 0.584485 0.439804
3 1 0.831906 0.629981 0.5044
4 1 0.819167 0.701646 0.557155
5 1 0.851869 0.778453 0.5714
6 1 0.875025 0.790108 0.644003
7 1 0.940865 0.776088 0.711083
8 1 0.00335737 0.800362 0.750684
9 2 0.733883 0.76001 0.616255
10 2 0.81381 0.29058 0.134719
11 2 0.71016 0.174505 0.512407
12 2 0.786458 0.510722 0.524787
13 2 0.874195 0.737182 0.753602
14 2 0.894477 0.656279 0.585605
15 2 0.67729 0.610278 0.318604
16 2 0.92831 0.777519 0.34588
ITEM: TIMESTEP
1800
ITEM: NUMBER OF ATOMS
16
ITEM: BOX BOUNDS
0 12.5992
0 12.5992
0 12.5992
ITEM: ATOMS id type xs ys zs
1 1 0.861618 0.631643 0.334835
2 1 0.829764 0.591858 0.410637
3 1 0.805244 0.601089 0.514287
4 1 0.854872 0.717628 0.496073
5 1 0.847831 0.788666 0.571552
6 1 0.885319 0.799683 0.663788
7 1 0.964594 0.743021 0.711645
8 1 0.0237611 0.766717 0.760965
9 2 0.751792 0.738321 0.637437
10 2 0.814045 0.323096 0.106025
11 2 0.736186 0.165771 0.535956
12 2 0.772471 0.512372 0.542682
13 2 0.875297 0.732142 0.768561
14 2 0.888939 0.633268 0.566018
15 2 0.692787 0.584611 0.346401
16 2 0.931533 0.743283 0.334332
ITEM: TIMESTEP
1900
ITEM: NUMBER OF ATOMS
16
ITEM: BOX BOUNDS
0 12.5992
0 12.5992
0 12.5992
ITEM: ATOMS id type xs ys zs
1 1 0.907256 0.617821 0.35642
2 1 0.820115 0.620318 0.371996
3 1 0.814482 0.640538 0.458304
4 1 0.851702 0.698122 0.518885
5 1 0.864068 0.730246 0.582066
6 1 0.901024 0.754829 0.648458
7 1 0.965305 0.740673 0.697807
8 1 0.0290458 0.733737 0.772181
9 2 0.790252 0.718784 0.646049
10 2 0.813278 0.349079 0.0839096
11 2 0.754406 0.154819 0.565307
12 2 0.761455 0.526252 0.55222
13 2 0.890476 0.736579 0.767198
14 2 0.891997 0.623254 0.551554
15 2 0.71648 0.568438 0.381664
16 2 0.931996 0.69556 0.327318
ITEM: TIMESTEP
2000
ITEM: NUMBER OF ATOMS
16
ITEM: BOX BOUNDS
0 12.5992
0 12.5992
0 12.5992
ITEM: ATOMS id type xs ys zs
1 1 0.894726 0.58804 0.390977
2 1 0.85218 0.638879 0.327729
3 1 0.817789 0.65722 0.398894
4 1 0.830572 0.671295 0.485751
5 1 0.870671 0.681423 0.574706
6 1 0.909792 0.718083 0.664384
7 1 0.992255 0.777412 0.720556
8 1 0.0313232 0.675954 0.788607
9 2 0.813465 0.706542 0.665293
10 2 0.807739 0.373333 0.0621688
11 2 0.767076 0.133825 0.599704
12 2 0.747093 0.552147 0.56147
13 2 0.92709 0.738509 0.754583
14 2 0.889791 0.613743 0.538105
15 2 0.758665 0.563932 0.421707
16 2 0.930704 0.650526 0.32919
ITEM: TIMESTEP
2100
ITEM: NUMBER OF ATOMS
16
ITEM: BOX BOUNDS
0 12.5992
0 12.5992
0 12.5992
ITEM: ATOMS id type xs ys zs
1 1 0.862062 0.571234 0.382804
2 1 0.847053 0.62253 0.324727
3 1 0.820717 0.678574 0.397293
4 1 0.819225 0.649671 0.488335
5 1 0.871813 0.677085 0.572055
6 1 0.933603 0.708527 0.671387
7 1 0.00995033 0.725752 0.705985
8 1 0.0250087 0.681381 0.790376
9 2 0.835472 0.699746 0.686278
10 2 0.80501 0.393882 0.0438829
11 2 0.779532 0.109639 0.63953
12 2 0.73853 0.581504 0.572965
13 2 0.930056 0.711115 0.757782
14 2 0.900423 0.581119 0.503691
15 2 0.815115 0.581362 0.447986
16 2 0.976074 0.605536 0.347882
ITEM: TIMESTEP
2200
ITEM: NUMBER OF ATOMS
16
ITEM: BOX BOUNDS
0 12.5992
0 12.5992
0 12.5992
ITEM: ATOMS id type xs ys zs
1 1 0.850597 0.530122 0.360053
2 1 0.830407 0.620962 0.354187
3 1 0.834778 0.663992 0.42591
4 1 0.836858 0.669591 0.502361
5 1 0.868614 0.674925 0.584467
6 1 0.947925 0.688567 0.643788
7 1 0.0199397 0.675576 0.691494
8 1 0.0139779 0.678216 0.769135
9 2 0.865119 0.701343 0.696706
10 2 0.804798 0.416372 0.0279349
11 2 0.785692 0.0830452 0.679441
12 2 0.739995 0.612146 0.578988
13 2 0.928882 0.677902 0.767734
14 2 0.922739 0.55683 0.476997
15 2 0.833333 0.593481 0.469301
16 2 0.0128055 0.556432 0.376822
ITEM: TIMESTEP
2300
ITEM: NUMBER OF ATOMS
16
ITEM: BOX BOUNDS
0 12.5992
0 12.5992
0 12.5992
ITEM: ATOMS id type xs ys zs
1 1 0.841618 0.515731 0.335171
2 1 0.823951 0.584263 0.414373
3 1 0.854754 0.686484 0.404691
4 1 0.840312 0.676798 0.51685
5 1 0.871047 0.671552 0.608856
6 1 0.950779 0.674511 0.621478
7 1 0.0246989 0.60814 0.693103
8 1 0.035872 0.679146 0.770702
9 2 0.894097 0.708526 0.690031
10 2 0.814012 0.434692 0.0160081
11 2 0.78858 0.0504594 0.71322
12 2 0.75379 0.650611 0.572106
13 2 0.914956 0.654964 0.771705
14 2 0.960183 0.541936 0.460266
15 2 0.83997 0.565146 0.507579
16 2 0.0506127 0.512386 0.395012
ITEM: TIMESTEP
2400
ITEM: NUMBER OF ATOMS
16
ITEM: BOX BOUNDS
0 12.5992
0 12.5992
0 12.5992
ITEM: ATOMS id type xs ys zs
1 1 0.83657 0.527189 0.366899
2 1 0.842326 0.562269 0.434062
3 1 0.842474 0.633397 0.462014
4 1 0.862702 0.685161 0.528351
5 1 0.87333 0.666588 0.610439
6 1 0.932817 0.616467 0.616681
7 1 0.979434 0.612076 0.705241
8 1 0.0435505 0.665644 0.764694
9 2 0.932269 0.702553 0.649886
10 2 0.829527 0.442398 0.0107132
11 2 0.787378 0.0199787 0.739502
12 2 0.785907 0.70138 0.553788
13 2 0.925156 0.622298 0.776022
14 2 0.980131 0.539299 0.450014
15 2 0.847939 0.55683 0.519182
16 2 0.0843389 0.466107 0.399722
ITEM: TIMESTEP
2500
ITEM: NUMBER OF ATOMS
16
ITEM: BOX BOUNDS
0 12.5992
0 12.5992
0 12.5992
ITEM: ATOMS id type xs ys zs
1 1 0.837104 0.506349 0.353491
2 1 0.859717 0.528242 0.439215
3 1 0.828547 0.621524 0.511617
4 1 0.893936 0.690669 0.549591
5 1 0.857301 0.672307 0.616881
6 1 0.909664 0.578588 0.631504
7 1 0.973314 0.616238 0.688478
8 1 0.0168909 0.645539 0.760722
9 2 0.996192 0.688605 0.618805
10 2 0.843405 0.452467 0.00328529
11 2 0.786234 0.997716 0.765541
12 2 0.811863 0.751838 0.535097
13 2 0.929736 0.590641 0.797716
14 2 0.979413 0.546994 0.438276
15 2 0.854615 0.565735 0.569906
16 2 0.117678 0.42409 0.39773
ITEM: TIMESTEP
2600
ITEM: NUMBER OF ATOMS
16
ITEM: BOX BOUNDS
0 12.5992
0 12.5992
0 12.5992
ITEM: ATOMS id type xs ys zs
1 1 0.852099 0.505077 0.388452
2 1 0.847595 0.564931 0.440724
3 1 0.885584 0.595755 0.509369
4 1 0.891921 0.664234 0.546151
5 1 0.859593 0.655644 0.619084
6 1 0.901049 0.602829 0.711213
7 1 0.986116 0.611768 0.64046
8 1 0.972134 0.61384 0.743781
9 2 0.0463415 0.670044 0.599859
10 2 0.855963 0.460515 0.996713
11 2 0.783026 0.972642 0.784546
12 2 0.852521 0.774702 0.526903
13 2 0.931947 0.572073 0.818635
14 2 0.960106 0.560471 0.42565
15 2 0.859902 0.569871 0.612852
16 2 0.147449 0.379547 0.403897
ITEM: TIMESTEP
2700
ITEM: NUMBER OF ATOMS
16
ITEM: BOX BOUNDS
0 12.5992
0 12.5992
0 12.5992
ITEM: ATOMS id type xs ys zs
1 1 0.873041 0.508193 0.416421
2 1 0.853815 0.589928 0.450341
3 1 0.931142 0.571437 0.504607
4 1 0.895049 0.65173 0.558504
5 1 0.858938 0.674481 0.633909
6 1 0.869628 0.60341 0.713092
7 1 0.939674 0.59815 0.672369
8 1 0.0162297 0.58675 0.749706
9 2 0.0933935 0.655219 0.577368
10 2 0.86581 0.473453 0.997605
11 2 0.788795 0.942582 0.802919
12 2 0.901541 0.768706 0.530379
13 2 0.944775 0.569939 0.809669
14 2 0.925453 0.576506 0.415455
15 2 0.877654 0.572234 0.628972
16 2 0.172072 0.333284 0.42014
ITEM: TIMESTEP
2800
ITEM: NUMBER OF ATOMS
16
ITEM: BOX BOUNDS
0 12.5992
0 12.5992
0 12.5992
ITEM: ATOMS id type xs ys zs
1 1 0.887607 0.531858 0.43986
2 1 0.847977 0.587021 0.497991
3 1 0.931419 0.620299 0.484044
4 1 0.894613 0.646526 0.567564
5 1 0.867928 0.662536 0.646002
6 1 0.860322 0.627679 0.708143
7 1 0.951838 0.602015 0.712809
8 1 0.0267037 0.565291 0.749015
9 2 0.132437 0.630746 0.552114
10 2 0.886174 0.490361 0.989269
11 2 0.799966 0.912554 0.81928
12 2 0.94576 0.742204 0.545456
13 2 0.959596 0.561188 0.820089
14 2 0.941037 0.589751 0.389897
15 2 0.883732 0.555012 0.621601
16 2 0.193468 0.288104 0.439697
ITEM: TIMESTEP
2900
ITEM: NUMBER OF ATOMS
16
ITEM: BOX BOUNDS
0 12.5992
0 12.5992
0 12.5992
ITEM: ATOMS id type xs ys zs
1 1 0.897549 0.554963 0.443225
2 1 0.872687 0.591309 0.521369
3 1 0.908196 0.652962 0.456958
4 1 0.896542 0.676641 0.552205
5 1 0.883493 0.671574 0.646554
6 1 0.890075 0.630823 0.744733
7 1 0.962581 0.612084 0.700475
8 1 0.996109 0.555471 0.745345
9 2 0.166197 0.60388 0.535933
10 2 0.908366 0.504026 0.982087
11 2 0.813873 0.880182 0.830993
12 2 0.986955 0.699491 0.576173
13 2 0.982323 0.537676 0.897957
14 2 0.939935 0.604793 0.392524
15 2 0.883913 0.541052 0.63581
16 2 0.206007 0.246279 0.454387
ITEM: TIMESTEP
3000
ITEM: NUMBER OF ATOMS
16
ITEM: BOX BOUNDS
0 12.5992
0 12.5992
0 12.5992
ITEM: ATOMS id type xs ys zs
1 1 0.901279 0.546114 0.439107
2 1 0.925672 0.605282 0.506478
3 1 0.868917 0.683024 0.469932
4 1 0.876167 0.690036 0.561806
5 1 0.905509 0.677687 0.635687
6 1 0.919613 0.664046 0.742309
7 1 0.985779 0.602073 0.704497
8 1 0.978137 0.536924 0.755469
9 2 0.206906 0.581524 0.536315
10 2 0.926667 0.521046 0.982483
11 2 0.829897 0.844833 0.82821
12 2 0.0239549 0.651856 0.611241
13 2 0.0151806 0.525639 0.95121
14 2 0.938345 0.634438 0.400636
15 2 0.8892 0.562078 0.641198
16 2 0.216527 0.216181 0.467874
ITEM: TIMESTEP
3100
ITEM: NUMBER OF ATOMS
16
ITEM: BOX BOUNDS
0 12.5992
0 12.5992
0 12.5992
ITEM: ATOMS id type xs ys zs
1 1 0.917989 0.554567 0.433538
2 1 0.942027 0.617266 0.477889
3 1 0.877585 0.681264 0.472493
4 1 0.860461 0.695008 0.581655
5 1 0.926534 0.687988 0.630696
6 1 0.979826 0.674131 0.70054
7 1 0.992348 0.596862 0.732099
8 1 0.959326 0.521392 0.767679
9 2 0.248965 0.561755 0.537052
10 2 0.929289 0.530325 0.98128
11 2 0.847541 0.811932 0.822629
12 2 0.0278618 0.61185 0.645907
13 2 0.0595082 0.514485 0.991961
14 2 0.913452 0.676184 0.394158
15 2 0.911956 0.611649 0.642387
16 2 0.22273 0.186034 0.482136
ITEM: TIMESTEP
3200
ITEM: NUMBER OF ATOMS
16
ITEM: BOX BOUNDS
0 12.5992
0 12.5992
0 12.5992
ITEM: ATOMS id type xs ys zs
1 1 0.942568 0.556341 0.418913
2 1 0.959121 0.61928 0.475162
3 1 0.882282 0.671766 0.49068
4 1 0.859326 0.704715 0.588691
5 1 0.951483 0.722954 0.619699
6 1 0.0211384 0.676303 0.681987
7 1 0.00216966 0.604476 0.756686
8 1 0.948571 0.533572 0.779605
9 2 0.289853 0.538282 0.534898
10 2 0.924561 0.539206 0.970263
11 2 0.862601 0.779219 0.808131
12 2 0.0130647 0.572889 0.679655
13 2 0.107915 0.499305 0.0209229
14 2 0.876399 0.716117 0.363235
15 2 0.925172 0.633467 0.640815
16 2 0.223191 0.153952 0.494417
ITEM: TIMESTEP
3300
ITEM: NUMBER OF ATOMS
16
ITEM: BOX BOUNDS
0 12.5992
0 12.5992
0 12.5992
ITEM: ATOMS id type xs ys zs
1 1 0.975592 0.55774 0.408512
2 1 0.957575 0.62092 0.46676
3 1 0.90037 0.675056 0.527806
4 1 0.906912 0.717663 0.588084
5 1 0.98867 0.739448 0.638318
6 1 0.988012 0.663329 0.671978
7 1 0.997258 0.634445 0.750235
8 1 0.966589 0.57821 0.796982
9 2 0.339521 0.507663 0.527103
10 2 0.921442 0.549712 0.951336
11 2 0.881323 0.735259 0.789336
12 2 0.993838 0.548711 0.706439
13 2 0.153989 0.4947 0.0483958
14 2 0.845686 0.743423 0.344052
15 2 0.923316 0.642345 0.629445
16 2 0.221528 0.115769 0.507196
ITEM: TIMESTEP
3400
ITEM: NUMBER OF ATOMS
16
ITEM: BOX BOUNDS
0 12.5992
0 12.5992
0 12.5992
ITEM: ATOMS id type xs ys zs
1 1 0.995328 0.570294 0.412873
2 1 0.950689 0.622467 0.453601
3 1 0.935611 0.669633 0.530728
4 1 0.949623 0.746548 0.597833
5 1 0.0221293 0.760227 0.66739
6 1 0.986484 0.676105 0.673022
7 1 0.993101 0.647991 0.750964
8 1 0.971175 0.59634 0.819297
9 2 0.387311 0.482768 0.521695
10 2 0.922086 0.563534 0.923068
11 2 0.914267 0.683957 0.754971
12 2 0.97084 0.558433 0.747305
13 2 0.19827 0.497245 0.0744791
14 2 0.813199 0.763203 0.333502
15 2 0.895199 0.619992 0.603089
16 2 0.224349 0.0720283 0.526423
ITEM: TIMESTEP
3500
ITEM: NUMBER OF ATOMS
16
ITEM: BOX BOUNDS
0 12.5992
0 12.5992
0 12.5992
ITEM: ATOMS id type xs ys zs
1 1 0.997771 0.580284 0.427333
2 1 0.937385 0.631605 0.473791
3 1 0.988185 0.700816 0.500861
4 1 1.0009 0.735585 0.59577
5 1 0.0183253 0.766918 0.665209
6 1 0.00319335 0.684032 0.706084
7 1 0.0242919 0.618557 0.760765
8 1 0.977148 0.628823 0.846588
9 2 0.4334 0.455158 0.51961
10 2 0.925394 0.582952 0.888128
11 2 0.909019 0.666671 0.699889
12 2 0.953961 0.555068 0.759774
13 2 0.250373 0.496302 0.0979447
14 2 0.77982 0.780241 0.324283
15 2 0.883754 0.607453 0.601007
16 2 0.232706 0.0244865 0.548755
ITEM: TIMESTEP
3600
ITEM: NUMBER OF ATOMS
16
ITEM: BOX BOUNDS
0 12.5992
0 12.5992
0 12.5992
ITEM: ATOMS id type xs ys zs
1 1 0.977358 0.593152 0.450273
2 1 0.954165 0.66401 0.502891
3 1 0.0207119 0.710708 0.486402
4 1 0.0401766 0.714772 0.570583
5 1 0.011846 0.738712 0.66779
6 1 0.0375591 0.685764 0.73944
7 1 0.0322837 0.607755 0.780597
8 1 0.99401 0.664303 0.843047
9 2 0.487572 0.421933 0.521998
10 2 0.915479 0.595209 0.870455
11 2 0.906197 0.675526 0.654347
12 2 0.95671 0.562653 0.770743
13 2 0.295404 0.491273 0.117921
14 2 0.757142 0.7905 0.311791
15 2 0.886383 0.612612 0.580468
16 2 0.235485 0.986309 0.565188
ITEM: TIMESTEP
3700
ITEM: NUMBER OF ATOMS
16
ITEM: BOX BOUNDS
0 12.5992
0 12.5992
0 12.5992
ITEM: ATOMS id type xs ys zs
1 1 0.948152 0.607683 0.478833
2 1 0.967681 0.688858 0.517365
3 1 0.0451811 0.718613 0.508249
4 1 0.0608398 0.719494 0.584164
5 1 0.0262479 0.65743 0.659297
6 1 0.0575746 0.691178 0.733097
7 1 0.0353075 0.626738 0.78756
8 1 0.996759 0.673363 0.853094
9 2 0.534781 0.399824 0.528219
10 2 0.922269 0.619297 0.859427
11 2 0.935606 0.697328 0.618544
12 2 0.965421 0.573981 0.77647
13 2 0.335558 0.491476 0.134464
14 2 0.738092 0.790296 0.298692
15 2 0.903469 0.623829 0.534483
16 2 0.231482 0.953917 0.58818
ITEM: TIMESTEP
3800
ITEM: NUMBER OF ATOMS
16
ITEM: BOX BOUNDS
0 12.5992
0 12.5992
0 12.5992
ITEM: ATOMS id type xs ys zs
1 1 0.981572 0.626162 0.449722
2 1 0.969345 0.676602 0.50836
3 1 0.0441971 0.718837 0.533116
4 1 0.0629874 0.695602 0.629454
5 1 0.050668 0.618814 0.650673
6 1 0.0577387 0.674919 0.720123
7 1 0.034449 0.657712 0.795853
8 1 0.00226095 0.682883 0.870765
9 2 0.569003 0.381765 0.537397
10 2 0.923008 0.639562 0.85611
11 2 0.997969 0.721903 0.589946
12 2 0.988993 0.59635 0.764704
13 2 0.371344 0.497591 0.159179
14 2 0.718464 0.792114 0.288412
15 2 0.879584 0.665198 0.553789
16 2 0.21343 0.918942 0.608734
ITEM: TIMESTEP
3900
ITEM: NUMBER OF ATOMS
16
ITEM: BOX BOUNDS
0 12.5992
0 12.5992
0 12.5992
ITEM: ATOMS id type xs ys zs
1 1 0.0112807 0.651453 0.425492
2 1 1.00016 0.685692 0.515698
3 1 0.0786147 0.697556 0.538147
4 1 0.0793157 0.676856 0.611018
5 1 0.0682945 0.594122 0.6608
6 1 0.0581142 0.668134 0.712015
7 1 0.0272192 0.685163 0.811916
8 1 0.993826 0.695616 0.891707
9 2 0.60321 0.355898 0.547515
10 2 0.929345 0.660061 0.841478
11 2 0.977714 0.741818 0.639294
12 2 0.00708891 0.592601 0.750722
13 2 0.412626 0.499511 0.17919
14 2 0.70112 0.796344 0.280385
15 2 0.877704 0.703582 0.562392
16 2 0.18685 0.875285 0.623397
ITEM: TIMESTEP
4000
ITEM: NUMBER OF ATOMS
16
ITEM: BOX BOUNDS
0 12.5992
0 12.5992
0 12.5992
ITEM: ATOMS id type xs ys zs
1 1 0.0322446 0.678286 0.41292
2 1 0.0197474 0.699872 0.508689
3 1 0.0989935 0.690557 0.529154
4 1 0.0884675 0.647453 0.603403
5 1 0.0689576 0.602531 0.708108
6 1 0.0559543 0.672199 0.73968
7 1 0.0111601 0.701183 0.802902
8 1 0.995017 0.703104 0.885247
9 2 0.637719 0.320265 0.557008
10 2 0.931237 0.678558 0.816689
11 2 0.986824 0.742633 0.694167
12 2 0.0115764 0.567769 0.753194
13 2 0.457506 0.499266 0.194087
14 2 0.68247 0.802775 0.271112
15 2 0.894018 0.737591 0.559727
16 2 0.156889 0.831031 0.630979
ITEM: TIMESTEP
4100
ITEM: NUMBER OF ATOMS
16
ITEM: BOX BOUNDS
0 12.5992
0 12.5992
0 12.5992
ITEM: ATOMS id type xs ys zs
1 1 0.0499181 0.699206 0.407073
2 1 0.0439244 0.715119 0.490887
3 1 0.0988871 0.672932 0.548384
4 1 0.0966465 0.618416 0.610664
5 1 0.0828046 0.601186 0.700843
6 1 0.0579657 0.653979 0.756255
7 1 0.989952 0.74086 0.818976
8 1 0.999363 0.702407 0.891746
9 2 0.670862 0.28188 0.566999
10 2 0.890549 0.678528 0.805842
11 2 0.0188342 0.740187 0.727186
12 2 0.0201261 0.555207 0.758976
13 2 0.502501 0.493307 0.210426
14 2 0.664498 0.815477 0.249716
15 2 0.917252 0.760188 0.550555
16 2 0.128526 0.785353 0.622871
ITEM: TIMESTEP
4200
ITEM: NUMBER OF ATOMS
16
ITEM: BOX BOUNDS
0 12.5992
0 12.5992
0 12.5992
ITEM: ATOMS id type xs ys zs
1 1 0.0679743 0.721744 0.407531
2 1 0.0763483 0.731125 0.485295
3 1 0.0770547 0.666858 0.576359
4 1 0.102831 0.590145 0.629423
5 1 0.0785623 0.613417 0.709761
6 1 0.0394625 0.644523 0.784486
7 1 0.993491 0.719823 0.819661
8 1 0.991156 0.704776 0.899636
9 2 0.704906 0.24913 0.586124
10 2 0.875423 0.685168 0.805146
11 2 0.0441618 0.741048 0.734037
12 2 0.0409367 0.5571 0.756363
13 2 0.541627 0.48219 0.231035
14 2 0.642032 0.827857 0.230924
15 2 0.951601 0.769307 0.536618
16 2 0.105745 0.728649 0.608294
ITEM: TIMESTEP
4300
ITEM: NUMBER OF ATOMS
16
ITEM: BOX BOUNDS
0 12.5992
0 12.5992
0 12.5992
ITEM: ATOMS id type xs ys zs
1 1 0.0835668 0.751385 0.430798
2 1 0.0934979 0.705463 0.52588
3 1 0.0655605 0.627649 0.550959
4 1 0.0846427 0.610263 0.633093
5 1 0.0824323 0.667857 0.705919
6 1 0.0273779 0.631747 0.78953
7 1 0.988809 0.701418 0.812137
8 1 0.973565 0.700421 0.902416
9 2 0.743968 0.222896 0.609469
10 2 0.874955 0.690734 0.814342
11 2 0.0609247 0.717101 0.762364
12 2 0.0492332 0.539318 0.763298
13 2 0.572364 0.470188 0.253078
14 2 0.620247 0.837151 0.219179
15 2 0.00159771 0.762663 0.525765
16 2 0.108938 0.708479 0.610132
ITEM: TIMESTEP
4400
ITEM: NUMBER OF ATOMS
16
ITEM: BOX BOUNDS
0 12.5992
0 12.5992
0 12.5992
ITEM: ATOMS id type xs ys zs
1 1 0.126942 0.786387 0.500529
2 1 0.0956186 0.683267 0.524808
3 1 0.0726806 0.606821 0.548418
4 1 0.0411998 0.617227 0.628155
5 1 0.0793839 0.665099 0.691848
6 1 0.024734 0.633857 0.761327
7 1 0.968882 0.687917 0.797921
8 1 0.949517 0.693465 0.893214
9 2 0.794446 0.196042 0.629293
10 2 0.890925 0.69857 0.828038
11 2 0.0527025 0.701898 0.831
12 2 0.0618929 0.541307 0.757917
13 2 0.607012 0.459893 0.283396
14 2 0.602315 0.853907 0.20965
15 2 0.0281958 0.741969 0.522204
16 2 0.120507 0.698396 0.605121
ITEM: TIMESTEP
4500
ITEM: NUMBER OF ATOMS
16
ITEM: BOX BOUNDS
0 12.5992
0 12.5992
0 12.5992
ITEM: ATOMS id type xs ys zs
1 1 0.160673 0.764263 0.552737
2 1 0.120205 0.700374 0.523645
3 1 0.0765175 0.614427 0.568217
4 1 0.00931037 0.61159 0.625869
5 1 0.0693675 0.644337 0.66966
6 1 0.0326899 0.63611 0.742092
7 1 0.964202 0.663302 0.805596
8 1 0.956709 0.675215 0.90048
9 2 0.845352 0.173676 0.650845
10 2 0.86449 0.71482 0.812476
11 2 0.0317627 0.668274 0.878787
12 2 0.0675812 0.561518 0.74397
13 2 0.636117 0.452185 0.312264
14 2 0.588751 0.876655 0.21049
15 2 0.0325533 0.709844 0.540781
16 2 0.13176 0.698311 0.607133
ITEM: TIMESTEP
4600
ITEM: NUMBER OF ATOMS
16
ITEM: BOX BOUNDS
0 12.5992
0 12.5992
0 12.5992
ITEM: ATOMS id type xs ys zs
1 1 0.180193 0.740046 0.588507
2 1 0.13625 0.696768 0.529537
3 1 0.0975201 0.620945 0.583809
4 1 0.0188021 0.610342 0.595594
5 1 0.058486 0.631655 0.663137
6 1 0.0256509 0.6613 0.741118
7 1 0.978847 0.637745 0.839052
8 1 0.935602 0.657579 0.901688
9 2 0.895205 0.147037 0.677088
10 2 0.836721 0.726951 0.787172
11 2 0.0386957 0.625616 0.898514
12 2 0.0758655 0.584804 0.732061
13 2 0.663808 0.443221 0.343107
14 2 0.582086 0.900089 0.203719
15 2 0.00949567 0.710997 0.548962
16 2 0.134647 0.680811 0.641205
ITEM: TIMESTEP
4700
ITEM: NUMBER OF ATOMS
16
ITEM: BOX BOUNDS
0 12.5992
0 12.5992
0 12.5992
ITEM: ATOMS id type xs ys zs
1 1 0.197286 0.717548 0.616481
2 1 0.135273 0.693401 0.559452
3 1 0.128967 0.606951 0.574845
4 1 0.0466632 0.617222 0.575122
5 1 0.0218168 0.657465 0.663981
6 1 0.0118361 0.654569 0.753581
7 1 0.00160116 0.625122 0.832759
8 1 0.928905 0.635295 0.891245
9 2 0.942779 0.115575 0.703649
10 2 0.823668 0.731163 0.76364
11 2 0.0353159 0.588614 0.913305
12 2 0.0765914 0.588312 0.74623
13 2 0.687341 0.435868 0.376826
14 2 0.57158 0.92544 0.193649
15 2 0.976624 0.727762 0.559923
16 2 0.137017 0.670203 0.670924
ITEM: TIMESTEP
4800
ITEM: NUMBER OF ATOMS
16
ITEM: BOX BOUNDS
0 12.5992
0 12.5992
0 12.5992
ITEM: ATOMS id type xs ys zs
1 1 0.214645 0.697073 0.654187